unknown system                          
   1.00000000000000     
     3.867484    0.000000    0.000000
     1.933742    3.349340    0.000000
     0.000000   -2.232891    3.157788
   Si
     2
Direct
  0.000000  0.000000  0.000000
  0.750000  0.500000  0.750000
 
   60   60   60
 0.52339048239E+06 0.19021099103E+05 0.38432004192E+04 0.22593854244E+04 0.12229718346E+04
 0.60539736537E+03 0.28680964324E+03 0.13312236813E+03 0.61257308207E+02 0.28112272192E+02
 0.12917890905E+02 0.59671120363E+01 0.27762647943E+01 0.12986139920E+01 0.61086103024E+00
 0.28864715531E+00 0.13706027446E+00 0.65455141832E-01 0.31505458747E-01 0.15405276845E-01
 0.78119804943E-02 0.42710488427E-02 0.27413539337E-02 0.21286568711E-02 0.20509580194E-02
 0.21376799750E-02 0.23913709962E-02 0.25902972333E-02 0.28333292080E-02 0.29281166681E-02
 0.30164703342E-02 0.29282700898E-02 0.28333825253E-02 0.25905596842E-02 0.23920711502E-02
 0.21379550638E-02 0.20512412887E-02 0.21312573253E-02 0.27406372753E-02 0.42733833425E-02
 0.78116890576E-02 0.15403468857E-01 0.31509036477E-01 0.65457325233E-01 0.13706072645E+00
 0.28864397507E+00 0.61085863459E+00 0.12986136438E+01 0.27762667441E+01 0.59671138758E+01
 0.12917891690E+02 0.28112273685E+02 0.61257309084E+02 0.13312236801E+03 0.28680964293E+03
 0.60539736471E+03 0.12229718351E+04 0.22593854243E+04 0.38432004192E+04 0.19021099102E+05
 0.19021091779E+05 0.47665084899E+04 0.27229824468E+04 0.15800282519E+04 0.81788908019E+03
 0.39752156210E+03 0.18726882123E+03 0.86929748817E+02 0.40103211428E+02 0.18474205274E+02
 0.85343989597E+01 0.39671265642E+01 0.18543201688E+01 0.87209229297E+00 0.41130063186E+00
 0.19538285424E+00 0.92861377126E-01 0.44661865787E-01 0.21434083593E-01 0.10634440473E-01
 0.53192666659E-02 0.30085883813E-02 0.18483675131E-02 0.15004779664E-02 0.13421430376E-02
 0.14354434082E-02 0.15107893255E-02 0.16495191397E-02 0.17302360861E-02 0.17850477758E-02
 0.17915729484E-02 0.17242516781E-02 0.16556530587E-02 0.15039690295E-02 0.14410269975E-02
 0.13362575977E-02 0.15054220377E-02 0.18408271123E-02 0.30146192682E-02 0.53113263883E-02
 0.10640534742E-01 0.21430288144E-01 0.44663760945E-01 0.92854425570E-01 0.19538616956E+00
 0.41130087882E+00 0.87209665313E+00 0.18543214282E+01 0.39671110824E+01 0.85344168127E+01
 0.18474196495E+02 0.40103260860E+02 0.86929685984E+02 0.18726890880E+03 0.39752146301E+03
 0.81788906752E+03 0.15800282894E+04 0.27229822830E+04 0.47665086363E+04 0.19021091887E+05
 0.38431994734E+04 0.27229821307E+04 0.17249765618E+04 0.95719037626E+03 0.48847697914E+03
 0.23795451740E+03 0.11305441490E+03 0.53026935650E+02 0.24720072991E+02 0.11510757905E+02
 0.53777893171E+01 0.25250525484E+01 0.11907019120E+01 0.56358097772E+00 0.26798098919E+00
 0.12770829901E+00 0.61286475458E-01 0.29416116029E-01 0.14357512703E-01 0.70215361451E-02
 0.36501279098E-02 0.19721399139E-02 0.13033576887E-02 0.96124251637E-03 0.92165613370E-03
 0.89434745896E-03 0.97907286422E-03 0.99883993974E-03 0.10689983235E-02 0.10514634795E-02
 0.10682054378E-02 0.99898621090E-03 0.97894622588E-03 0.89557196610E-03 0.92103954853E-03
 0.96255225753E-03 0.13026666095E-02 0.19752565378E-02 0.36485602255E-02 0.70249444542E-02
 0.14355540098E-01 0.29416559370E-01 0.61286529344E-01 0.12771448345E+00 0.26797719649E+00
 0.56358307072E+00 0.11906915107E+01 0.25250707642E+01 0.53777786067E+01 0.11510757755E+02
 0.24720016736E+02 0.53026965606E+02 0.11305436876E+03 0.23795455141E+03 0.48847707456E+03
 0.95719035106E+03 0.17249767024E+04 0.27229821368E+04 0.38431992271E+04 0.47665073794E+04
 0.22593848707E+04 0.15800279886E+04 0.95719019852E+03 0.52417935178E+03 0.26930894121E+03
 0.13312245598E+03 0.64322083410E+02 0.30671744952E+02 0.14525658803E+02 0.68721708497E+01
 0.32588777028E+01 0.15489395468E+01 0.73869096234E+00 0.35281924322E+00 0.16919778531E+00
 0.81264799007E-01 0.39239689638E-01 0.18987333029E-01 0.92983283580E-02 0.46030816144E-02
 0.23867973379E-02 0.13183510239E-02 0.85224695753E-03 0.64288679151E-03 0.58668522565E-03
 0.57431871584E-03 0.60087148504E-03 0.61500999325E-03 0.63433102851E-03 0.62900430756E-03
 0.62127144515E-03 0.59504197443E-03 0.57977076852E-03 0.58061477795E-03 0.64796509362E-03
 0.84684855546E-03 0.13231536754E-02 0.23796664237E-02 0.46085023628E-02 0.92919174594E-02
 0.18991114856E-01 0.39238849904E-01 0.81264018211E-01 0.16919415149E+00 0.35281803414E+00
 0.73869794955E+00 0.15489270315E+01 0.32588894016E+01 0.68721566165E+01 0.14525732933E+02
 0.30671713561E+02 0.64322171240E+02 0.13312237721E+03 0.26930890438E+03 0.52417931710E+03
 0.95719002203E+03 0.15800280134E+04 0.22593849605E+04 0.27229818674E+04 0.27229817329E+04
 0.12229714338E+04 0.81788874863E+03 0.48847667463E+03 0.26930887820E+03 0.14072005318E+03
 0.71002425232E+02 0.35024959422E+02 0.17035008113E+02 0.82279273383E+01 0.39670498520E+01
 0.19115555736E+01 0.92217070729E+00 0.44451396851E+00 0.21510325231E+00 0.10382354083E+00
 0.50580469198E-01 0.24391713474E-01 0.12095583864E-01 0.57824292379E-02 0.30569078426E-02
 0.14326926125E-02 0.95779706691E-03 0.45664451051E-03 0.51001699169E-03 0.28003204376E-03
 0.45011432298E-03 0.27656968460E-03 0.46070780674E-03 0.28681476755E-03 0.46067712765E-03
 0.27565600276E-03 0.45118606650E-03 0.27863516495E-03 0.51279430038E-03 0.45416293630E-03
 0.96088826676E-03 0.14297853940E-02 0.30627478266E-02 0.57769977298E-02 0.12103504476E-01
 0.24384703524E-01 0.50586381184E-01 0.10381649435E+00 0.21511766856E+00 0.44449952533E+00
 0.92219429266E+00 0.19115295396E+01 0.39670754291E+01 0.82278543360E+01 0.17035036385E+02
 0.35024855449E+02 0.71002474607E+02 0.14072012975E+03 0.26930884544E+03 0.48847692016E+03
 0.81788875588E+03 0.12229713211E+04 0.15800278127E+04 0.17249763111E+04 0.15800277848E+04
 0.60539716815E+03 0.39752138985E+03 0.23795445822E+03 0.13312243365E+03 0.71002419336E+02
 0.36631809566E+02 0.18474005854E+02 0.91874074535E+01 0.45341504924E+01 0.22290653592E+01
 0.10926340759E+01 0.53431882367E+00 0.26145838795E+00 0.12762379211E+00 0.62584419140E-01
 0.30511682262E-01 0.15083500009E-01 0.73314145977E-02 0.37218107621E-02 0.18068375207E-02
 0.10098473447E-02 0.51584615280E-03 0.37944774005E-03 0.24386686258E-03 0.24899282077E-03
 0.20935008455E-03 0.22948305495E-03 0.21836701930E-03 0.22159625628E-03 0.22638756977E-03
 0.21274042454E-03 0.24624510156E-03 0.24603650806E-03 0.37656163893E-03 0.51815314503E-03
 0.10074502410E-02 0.18081856844E-02 0.37190856760E-02 0.73319546987E-02 0.15082559882E-01
 0.30509483959E-01 0.62590590747E-01 0.12761566734E+00 0.26146495357E+00 0.53429652809E+00
 0.10926556794E+01 0.22290445670E+01 0.45342222017E+01 0.91873662744E+01 0.18474123299E+02
 0.36631776246E+02 0.71002362558E+02 0.13312245415E+03 0.23795424985E+03 0.39752133859E+03
 0.60539723393E+03 0.81788862866E+03 0.95718964575E+03 0.95718981479E+03 0.81788864268E+03
 0.28680952878E+03 0.18726874780E+03 0.11305435206E+03 0.64322038489E+02 0.35024999847E+02
 0.18474003596E+02 0.95342652818E+01 0.48520674668E+01 0.24471686805E+01 0.12255394200E+01
 0.61071325248E+00 0.30337783435E+00 0.15028090815E+00 0.74431026283E-01 0.36767654582E-01
 0.18229828204E-01 0.89957252456E-02 0.44997918209E-02 0.22272057712E-02 0.11580517081E-02
 0.59096593205E-03 0.35714173847E-03 0.20977190252E-03 0.17728046297E-03 0.13255301863E-03
 0.14572409561E-03 0.12195609032E-03 0.14355340681E-03 0.12155295110E-03 0.14694176108E-03
 0.12988835942E-03 0.18047163867E-03 0.20636509305E-03 0.36185500105E-03 0.58583692240E-03
 0.11646997607E-02 0.22195489222E-02 0.45110670146E-02 0.89841846384E-02 0.18244316726E-01
 0.36752918236E-01 0.74445935836E-01 0.15026064825E+00 0.30341629519E+00 0.61068121324E+00
 0.12255770319E+01 0.24470790304E+01 0.48521241078E+01 0.95341502863E+01 0.18474026163E+02
 0.35025044357E+02 0.64321977057E+02 0.11305459348E+03 0.18726874938E+03 0.28680950310E+03
 0.39752139883E+03 0.48847691941E+03 0.52417913924E+03 0.48847675450E+03 0.39752131888E+03
 0.13312220657E+03 0.86929679996E+02 0.53026846772E+02 0.30671744083E+02 0.17034989116E+02
 0.91873892794E+01 0.48520688124E+01 0.25249818576E+01 0.12986908310E+01 0.66222305059E+00
 0.33548721997E+00 0.16908622549E+00 0.84980062807E-01 0.42540545625E-01 0.21324247827E-01
 0.10625523281E-01 0.53477521100E-02 0.26540730445E-02 0.13664591393E-02 0.68063821055E-03
 0.38280243611E-03 0.20311169022E-03 0.14545966162E-03 0.96757893583E-04 0.91465185566E-04
 0.79119672951E-04 0.79938391844E-04 0.80777957466E-04 0.77628546327E-04 0.93399699684E-04
 0.95129571981E-04 0.14734892177E-03 0.20059524553E-03 0.38535674330E-03 0.67672855647E-03
 0.13711484562E-02 0.26479551892E-02 0.53528982257E-02 0.10617632989E-01 0.21333373847E-01
 0.42526578004E-01 0.85002024652E-01 0.16905233630E+00 0.33551330612E+00 0.66218272962E+00
 0.12987771555E+01 0.25249291786E+01 0.48521788021E+01 0.91873601370E+01 0.17034947478E+02
 0.30671850619E+02 0.53026608706E+02 0.86929679736E+02 0.13312226898E+03 0.18726864329E+03
 0.23795414392E+03 0.26930874224E+03 0.26930873377E+03 0.23795439817E+03 0.18726876548E+03
 0.61257343031E+02 0.40103198262E+02 0.24720044074E+02 0.14525656707E+02 0.82279294750E+01
 0.45341609538E+01 0.24471678928E+01 0.12986911842E+01 0.68052255303E+00 0.35287098786E+00
 0.18162955209E+00 0.92860181095E-01 0.47314391121E-01 0.23976646616E-01 0.12160603513E-01
 0.61210252712E-02 0.31168688305E-02 0.15559290580E-02 0.81587981998E-03 0.40234748969E-03
 0.23757295963E-03 0.11714962273E-03 0.96577889149E-04 0.50924722723E-04 0.64446697898E-04
 0.38833475816E-04 0.57808388388E-04 0.40771269707E-04 0.61174353951E-04 0.55518022935E-04
 0.90136488177E-04 0.12510695030E-03 0.22798848532E-03 0.41451575008E-03 0.80200046403E-03
 0.15722751454E-02 0.30983313502E-02 0.61448362219E-02 0.12133959278E-01 0.24008562198E-01
 0.47277373716E-01 0.92908586217E-01 0.18158049948E+00 0.35293902392E+00 0.68041610211E+00
 0.12987706645E+01 0.24470353779E+01 0.45342021325E+01 0.82279937783E+01 0.14525498969E+02
 0.24720294805E+02 0.40103145329E+02 0.61257283077E+02 0.86929760170E+02 0.11305463289E+03
 0.13312233426E+03 0.14071989948E+03 0.13312225080E+03 0.11305432513E+03 0.86929654673E+02
 0.28112245802E+02 0.18474156260E+02 0.11510748152E+02 0.68721723870E+01 0.39670427905E+01
 0.22290520501E+01 0.12255413347E+01 0.66221933692E+00 0.35287438776E+00 0.18599721950E+00
 0.97157556778E-01 0.50410687586E-01 0.25992721192E-01 0.13354849271E-01 0.68314639926E-02
 0.34948038343E-02 0.17780633327E-02 0.91650464218E-03 0.46431280127E-03 0.25241645330E-03
 0.12741009590E-03 0.85862917625E-04 0.42248239149E-04 0.47610800053E-04 0.21204497668E-04
 0.41540630451E-04 0.16940655429E-04 0.45706500099E-04 0.22783030280E-04 0.67360311254E-04
 0.60676421499E-04 0.15343620618E-03 0.22531874615E-03 0.49197254898E-03 0.88707603804E-03
 0.18090886511E-02 0.34610572265E-02 0.68660476986E-02 0.13315960957E-01 0.26037226157E-01
 0.50351338201E-01 0.97217705234E-01 0.18592622475E+00 0.35297623629E+00 0.66214305955E+00
 0.12256484495E+01 0.22290585625E+01 0.39669009105E+01 0.68724172249E+01 0.11510426565E+02
 0.18474282338E+02 0.28112362546E+02 0.40103111471E+02 0.53026569098E+02 0.64321996068E+02
 0.71002343300E+02 0.71002440120E+02 0.64322117034E+02 0.53026892237E+02 0.40103241694E+02
 0.12917885762E+02 0.85343895946E+01 0.53777902526E+01 0.32588697761E+01 0.19115576802E+01
 0.10926429531E+01 0.61071297659E+00 0.33548839372E+00 0.18162805978E+00 0.97155530578E-01
 0.51485370587E-01 0.27055309859E-01 0.14143234137E-01 0.73476958638E-02 0.38041403616E-02
 0.19644345164E-02 0.10110579021E-02 0.52514631195E-03 0.26947522855E-03 0.14762130551E-03
 0.75249770705E-04 0.51515052244E-04 0.25567166525E-04 0.28493386367E-04 0.13507056755E-04
 0.25186730598E-04 0.12417158146E-04 0.30730794086E-04 0.22552793758E-04 0.55671781735E-04
 0.69371312099E-04 0.15473581325E-03 0.26094139607E-03 0.53597927098E-03 0.99862378525E-03
 0.19792440343E-02 0.37873000221E-02 0.73692482644E-02 0.14117066408E-01 0.27092586576E-01
 0.51455546870E-01 0.97190928142E-01 0.18156450496E+00 0.33551623076E+00 0.61068516917E+00
 0.10925379175E+01 0.19118255013E+01 0.32584945824E+01 0.53781989600E+01 0.85342821750E+01
 0.12917610798E+02 0.18474332706E+02 0.24720390422E+02 0.30671804244E+02 0.35024923925E+02
 0.36631694972E+02 0.35024810953E+02 0.30671663966E+02 0.24720013690E+02 0.18474199514E+02
 0.59670928142E+01 0.39671171250E+01 0.25250504420E+01 0.15489407480E+01 0.92216813393E+00
 0.53430976310E+00 0.30337726882E+00 0.16908541152E+00 0.92861084395E-01 0.50413337931E-01
 0.27054852045E-01 0.14434664500E-01 0.76052534344E-02 0.40193639671E-02 0.20843692838E-02
 0.11059303887E-02 0.55812480141E-03 0.30848615067E-03 0.14499608797E-03 0.94225511537E-04
 0.35951763843E-04 0.37780934752E-04 0.83473198361E-05 0.23909452526E-04 0.26700812015E-05
 0.21704048107E-04 0.48880195356E-05 0.27263418757E-04 0.18441846575E-04 0.55490006059E-04
 0.75006882193E-04 0.16462580837E-03 0.28845959023E-03 0.57780917111E-03 0.10857742534E-02
 0.21044843929E-02 0.39985290792E-02 0.76267714467E-02 0.14406115399E-01 0.27072593741E-01
 0.50390326740E-01 0.92902215343E-01 0.16909856047E+00 0.30334516557E+00 0.53447558210E+00
 0.92184057627E+00 0.15493142910E+01 0.25247829324E+01 0.39669283785E+01 0.59676444302E+01
 0.85343172372E+01 0.11510417698E+02 0.14525477474E+02 0.17034989670E+02 0.18474064886E+02
 0.18474137758E+02 0.17035025960E+02 0.14525756709E+02 0.11510777986E+02 0.85344335622E+01
 0.27762602388E+01 0.18543259090E+01 0.11906990389E+01 0.73868863482E+00 0.44451417501E+00
 0.26146679434E+00 0.15028047351E+00 0.84981610982E-01 0.47312470354E-01 0.25990620721E-01
 0.14143118415E-01 0.76064716523E-02 0.40860807532E-02 0.21602362413E-02 0.11524413758E-02
 0.59750529523E-03 0.32403586186E-03 0.16135183477E-03 0.95154667599E-04 0.41992085270E-04
 0.33066754199E-04 0.10080675066E-04 0.17228042680E-04 0.18058791858E-05 0.14316286903E-04
 0.17699308866E-05 0.17451781145E-04 0.97749570682E-05 0.33977416888E-04 0.40708822613E-04
 0.96066537341E-04 0.16013205994E-03 0.32563067165E-03 0.59615196613E-03 0.11542872060E-02
 0.21587069275E-02 0.40859300233E-02 0.76134442833E-02 0.14148403228E-01 0.25988154193E-01
 0.47306049720E-01 0.84933784795E-01 0.15033798223E+00 0.26129724587E+00 0.44480658204E+00
 0.73845300563E+00 0.11907163490E+01 0.18547507848E+01 0.27757372916E+01 0.39669305147E+01
 0.53782289129E+01 0.68724874180E+01 0.82280181697E+01 0.91873518256E+01 0.95341411974E+01
 0.91873731183E+01 0.82278765179E+01 0.68721809507E+01 0.53777967903E+01 0.39671111572E+01
 0.12986155235E+01 0.87208511434E+00 0.56358154089E+00 0.35282033744E+00 0.21510265443E+00
 0.12761610030E+00 0.74430764941E-01 0.42539170664E-01 0.23978818798E-01 0.13356800362E-01
 0.73473235169E-02 0.40185987233E-02 0.21600437961E-02 0.11693330590E-02 0.61794375741E-03
 0.33519044947E-03 0.17177496662E-03 0.97269551974E-04 0.46345940760E-04 0.31044514966E-04
 0.12298094980E-04 0.13116492676E-04 0.34677108130E-05 0.95516318946E-05 0.19966644069E-05
 0.10712184235E-04 0.60354016377E-05 0.19183898311E-04 0.23691935674E-04 0.54218678453E-04
 0.89612227875E-04 0.17976572674E-03 0.32692177574E-03 0.62607066684E-03 0.11601944443E-02
 0.21713276913E-02 0.40018578981E-02 0.73513590741E-02 0.13347799611E-01 0.23998625998E-01
 0.42562178168E-01 0.74405430614E-01 0.12773768639E+00 0.21489516958E+00 0.35291411234E+00
 0.56369551547E+00 0.87168766473E+00 0.12988619169E+01 0.18547767910E+01 0.25248220885E+01
 0.32585452595E+01 0.39669537912E+01 0.45342884589E+01 0.48522686820E+01 0.48522080249E+01
 0.45343000538E+01 0.39671491316E+01 0.32589552486E+01 0.25251139818E+01 0.18543491116E+01
 0.61085730425E+00 0.41130435870E+00 0.26797972634E+00 0.16919623752E+00 0.10382325880E+00
 0.62591530165E-01 0.36768105307E-01 0.21325071316E-01 0.12158536074E-01 0.68298456156E-02
 0.38041731316E-02 0.20852945978E-02 0.11524774349E-02 0.61760900968E-03 0.33989679678E-03
 0.17698200801E-03 0.10055557800E-03 0.48656942302E-04 0.31478891152E-04 0.12353005898E-04
 0.12021770769E-04 0.27544462823E-05 0.68929646167E-05 0.63749561313E-06 0.72080541264E-05
 0.25789664250E-05 0.11998684339E-04 0.12803151290E-04 0.31039957574E-04 0.48959804287E-04
 0.99809352800E-04 0.17754034446E-03 0.33912473929E-03 0.61945941651E-03 0.11489443195E-02
 0.20938262795E-02 0.38071278517E-02 0.68335477583E-02 0.12146013191E-01 0.21295911038E-01
 0.36802990561E-01 0.62474993485E-01 0.10400139976E+00 0.16913858631E+00 0.26788725410E+00
 0.41155804848E+00 0.61081628544E+00 0.87172146595E+00 0.11907911055E+01 0.15493933185E+01
 0.19119443834E+01 0.22291799975E+01 0.24471511467E+01 0.25250335669E+01 0.24471962279E+01
 0.22291502275E+01 0.19116298280E+01 0.15489983945E+01 0.11907561819E+01 0.87212964562E+00
 0.28864969230E+00 0.19537955946E+00 0.12770852755E+00 0.81266505248E-01 0.50580528111E-01
 0.30504918690E-01 0.18229391388E-01 0.10624799719E-01 0.61227953838E-02 0.34967217536E-02
 0.19642518912E-02 0.11050507222E-02 0.59789961794E-03 0.33518112158E-03 0.17647925309E-03
 0.10124994642E-03 0.49642412745E-04 0.32111858470E-04 0.12824926138E-04 0.11900630499E-04
 0.27153344319E-05 0.64818187845E-05 0.41020301381E-06 0.56763122904E-05 0.93568450075E-06
 0.82891517207E-05 0.62462969552E-05 0.18444626779E-04 0.26208533897E-04 0.55794678211E-04
 0.95446420096E-04 0.18300602680E-03 0.32802515843E-03 0.60643202534E-03 0.10914051413E-02
 0.19662660477E-02 0.34885680548E-02 0.61378266257E-02 0.10646969978E-01 0.18206405666E-01
 0.30591134441E-01 0.50440633920E-01 0.81296778461E-01 0.12779232150E+00 0.19518678445E+00
 0.28865652133E+00 0.41163271220E+00 0.56380736021E+00 0.73860144850E+00 0.92200661361E+00
 0.10927204682E+01 0.12258470751E+01 0.12989966328E+01 0.12990026607E+01 0.12257931741E+01
 0.10928489809E+01 0.92236907063E+00 0.73884697779E+00 0.56370196596E+00 0.41136736619E+00
 0.13705681557E+00 0.92863643613E-01 0.61285861225E-01 0.39237735528E-01 0.24391634240E-01
 0.15089584357E-01 0.89962252415E-02 0.53485519094E-02 0.31148125124E-02 0.17763145535E-02
 0.10111287423E-02 0.55873492574E-03 0.32381718815E-03 0.17231491911E-03 0.10053489167E-03
 0.50015386111E-04 0.32044622010E-04 0.12822741684E-04 0.11885605597E-04 0.24339750662E-05
 0.57855980058E-05 -.97393196923E-07 0.46670415533E-05 0.46971366552E-08 0.57484423078E-05
 0.26988662393E-05 0.11373384813E-04 0.13586093464E-04 0.31466693077E-04 0.50529940403E-04
 0.99026784144E-04 0.17387279521E-03 0.32044156934E-03 0.56748742096E-03 0.10145491061E-02
 0.17801239002E-02 0.31035273276E-02 0.53269489267E-02 0.90185085105E-02 0.15010245325E-01
 0.24528256796E-01 0.39206870712E-01 0.61219378032E-01 0.93004294701E-01 0.13707391117E+00
 0.19528762708E+00 0.26805133694E+00 0.35314088058E+00 0.44508228575E+00 0.53479329564E+00
 0.61102902088E+00 0.66249652971E+00 0.68076078438E+00 0.66251863934E+00 0.61100824298E+00
 0.53460609448E+00 0.44477606993E+00 0.35304016294E+00 0.26814577073E+00 0.19548296422E+00
 0.65457863774E-01 0.44660418232E-01 0.29416433598E-01 0.18989358392E-01 0.12095505809E-01
 0.73260039385E-02 0.44988951754E-02 0.26537094963E-02 0.15576588728E-02 0.91855601274E-03
 0.52522237220E-03 0.30768427239E-03 0.16120201403E-03 0.97110589699E-04 0.48481123413E-04
 0.31787592019E-04 0.13330082352E-04 0.11698948431E-04 0.25005866585E-05 0.59235476745E-05
 -.11668293709E-06 0.41571690013E-05 -.57744952025E-06 0.46824718008E-05 0.87287407717E-06
 0.75708141560E-05 0.67038697359E-05 0.18205595106E-04 0.26440767428E-04 0.54524296833E-04
 0.91427711300E-04 0.16936030036E-03 0.29469449636E-03 0.52516437862E-03 0.90991625972E-03
 0.15727218895E-02 0.26701551255E-02 0.44811795535E-02 0.73918377994E-02 0.11976752306E-01
 0.18999675196E-01 0.29483220003E-01 0.44549691497E-01 0.65446014948E-01 0.93147839685E-01
 0.12807008570E+00 0.16950222733E+00 0.21534998731E+00 0.26180247715E+00 0.30390238019E+00
 0.33609600673E+00 0.35359129318E+00 0.35355717366E+00 0.33612383638E+00 0.30397684216E+00
 0.26197826471E+00 0.21555799688E+00 0.16956456134E+00 0.12798342694E+00 0.93015591847E-01
 0.31502337883E-01 0.21434766656E-01 0.14357169394E-01 0.92962851749E-02 0.57824104070E-02
 0.37267122564E-02 0.22281262872E-02 0.13669734943E-02 0.81389454932E-03 0.46198132059E-03
 0.26961305575E-03 0.14617423513E-03 0.94880057623E-04 0.46794668627E-04 0.31493344920E-04
 0.12872451182E-04 0.11587140420E-04 0.27408012857E-05 0.54745559813E-05 -.15094514718E-06
 0.37781168427E-05 -.34609011963E-06 0.36590981520E-05 0.38710071508E-07 0.53133719915E-05
 0.31152486458E-05 0.10888663000E-04 0.14036577345E-04 0.30267004528E-04 0.47911044503E-04
 0.90660428068E-04 0.15441482492E-03 0.27443459234E-03 0.46791429994E-03 0.80290595429E-03
 0.13492758000E-02 0.22453586172E-02 0.36691937213E-02 0.58949327939E-02 0.92840386872E-02
 0.14313958504E-01 0.21511625859E-01 0.31509830762E-01 0.44787120697E-01 0.61629465843E-01
 0.81845897889E-01 0.10468335866E+00 0.12853611089E+00 0.15123033892E+00 0.17007976790E+00
 0.18260152862E+00 0.18697858581E+00 0.18259879957E+00 0.17001390762E+00 0.15114532775E+00
 0.12842543012E+00 0.10450816399E+00 0.81811343484E-01 0.61686204154E-01 0.44891628874E-01
 0.15408073712E-01 0.10634645394E-01 0.70213246686E-02 0.46054616065E-02 0.30567952091E-02
 0.18027420050E-02 0.11563472340E-02 0.68073268437E-03 0.40439458226E-03 0.25491858618E-03
 0.14696025910E-03 0.93455899760E-04 0.41863962515E-04 0.30908568953E-04 0.12436192011E-04
 0.11802518080E-04 0.24178861676E-05 0.59729074340E-05 -.26527013182E-06 0.40747917954E-05
 -.71764169617E-06 0.34917441745E-05 -.17857957171E-06 0.42320154838E-05 0.10864544365E-05
 0.73901112409E-05 0.68939985113E-05 0.17294384554E-04 0.25436260243E-04 0.50395881807E-04
 0.81819510213E-04 0.14584799382E-03 0.24403746102E-03 0.41809830747E-03 0.69291849494E-03
 0.11443385663E-02 0.18508747328E-02 0.29508146355E-02 0.46129170907E-02 0.70636553315E-02
 0.10558796422E-01 0.15417169081E-01 0.21852118620E-01 0.30069193013E-01 0.40037536896E-01
 0.51502659443E-01 0.63755577795E-01 0.75849149367E-01 0.86537433129E-01 0.94610905400E-01
 0.98966967560E-01 0.98996485615E-01 0.94641759893E-01 0.86616705504E-01 0.75892843485E-01
 0.63841754881E-01 0.51650831604E-01 0.40077911448E-01 0.30020137362E-01 0.21767231299E-01
 0.78097824132E-02 0.53181538071E-02 0.36509935558E-02 0.23836852494E-02 0.14330808701E-02
 0.10134674643E-02 0.59317141414E-03 0.38179550552E-03 0.23598279826E-03 0.12443155084E-03
 0.76405453091E-04 0.36578739017E-04 0.33449929250E-04 0.11773584764E-04 0.12507409401E-04
 0.25519799329E-05 0.60675775550E-05 -.59855709018E-06 0.43542233507E-05 -.11739667505E-05
 0.37035455300E-05 -.86214070138E-06 0.36456957775E-05 0.25023503178E-06 0.54135871796E-05
 0.32636491589E-05 0.11288869021E-04 0.13909365018E-04 0.28879370678E-04 0.43994532001E-04
 0.81141311844E-04 0.13260802751E-03 0.22651989715E-03 0.36909503068E-03 0.60616221097E-03
 0.96971714653E-03 0.15350437194E-02 0.23788955941E-02 0.36158595366E-02 0.53749011577E-02
 0.78125835683E-02 0.11028463767E-01 0.15179756368E-01 0.20239257654E-01 0.26124007012E-01
 0.32526894806E-01 0.39034493541E-01 0.45084685710E-01 0.50067764648E-01 0.53316053356E-01
 0.54432803806E-01 0.53265363933E-01 0.50022133322E-01 0.45037816566E-01 0.39004848108E-01
 0.32467169859E-01 0.25965178309E-01 0.20210669815E-01 0.15225127559E-01 0.11109336214E-01
 0.42758797345E-02 0.30079585874E-02 0.19728264861E-02 0.13205880289E-02 0.95805734006E-03
 0.51184330184E-03 0.35560063247E-03 0.20385941380E-03 0.11932782751E-03 0.88576961266E-04
 0.50148778783E-04 0.36994537699E-04 0.10191578892E-04 0.13310550251E-04 0.24343398047E-05
 0.64291114799E-05 -.73838841165E-08 0.43757491135E-05 -.93864166319E-06 0.40711269534E-05
 -.89205632180E-06 0.40418114630E-05 -.39307673213E-06 0.46501689156E-05 0.14467949051E-05
 0.79184343223E-05 0.73754209206E-05 0.18219915416E-04 0.25712568925E-04 0.49270796882E-04
 0.76103249217E-04 0.13171772556E-03 0.21067538344E-03 0.34653204921E-03 0.54712932863E-03
 0.86186810309E-03 0.13237049492E-02 0.20017425708E-02 0.29605975088E-02 0.42832697345E-02
 0.60275733640E-02 0.83015000403E-02 0.11054489076E-01 0.14289651311E-01 0.17908364914E-01
 0.21677309391E-01 0.25293457913E-01 0.28456864028E-01 0.30778657405E-01 0.32044270294E-01
 0.32062878641E-01 0.30845148561E-01 0.28475566295E-01 0.25331169725E-01 0.21680994151E-01
 0.17983401159E-01 0.14444055933E-01 0.11062498303E-01 0.82534546247E-02 0.59754215907E-02
 0.27350510020E-02 0.18499834053E-02 0.13014207304E-02 0.85099742811E-03 0.45561989707E-03
 0.38374748406E-03 0.21073723166E-03 0.14482012302E-03 0.93816496463E-04 0.40243110732E-04
 0.26777131483E-04 0.91719320486E-05 0.16994337059E-04 0.32521030892E-05 0.74023029019E-05
 0.17349895327E-06 0.45255558743E-05 -.26658171174E-06 0.37389941930E-05 -.52201481790E-06
 0.36685634485E-05 -.18560608407E-06 0.41883972361E-05 0.87243241380E-06 0.63871405182E-05
 0.46950360916E-05 0.13013236421E-04 0.16635491589E-04 0.32298271486E-04 0.48907780587E-04
 0.86126417760E-04 0.13605109475E-03 0.22338856648E-03 0.35046713477E-03 0.55210111437E-03
 0.84595941079E-03 0.12777422028E-02 0.18889798552E-02 0.27280092026E-02 0.38509847342E-02
 0.53094855848E-02 0.70874715443E-02 0.92215814615E-02 0.11660755396E-01 0.14243736844E-01
 0.16744026858E-01 0.19044103149E-01 0.20897863503E-01 0.22138336496E-01 0.22542392162E-01
 0.22101950454E-01 0.20853958995E-01 0.19030555509E-01 0.16733156308E-01 0.14227942213E-01
 0.11572506979E-01 0.90951802830E-02 0.71006539202E-02 0.53271108873E-02 0.39052361514E-02
 0.21327262393E-02 0.15006340471E-02 0.96228800102E-03 0.64481957119E-03 0.51059277169E-03
 0.24026793178E-03 0.17623926858E-03 0.97800751143E-04 0.53498654832E-04 0.49496262855E-04
 0.27347977355E-04 0.22881981045E-04 0.25887736310E-05 0.90545533496E-05 0.83777812354E-06
 0.56224861048E-05 0.50278575052E-07 0.42517494418E-05 0.41961502921E-06 0.39348926838E-05
 0.61709537782E-06 0.39430659787E-05 0.16017178749E-05 0.51427768434E-05 0.41716345204E-05
 0.10102918866E-04 0.12454007652E-04 0.23973233912E-04 0.36955621693E-04 0.64004055553E-04
 0.10148576556E-03 0.16701579022E-03 0.26501209945E-03 0.41890376377E-03 0.64719815280E-03
 0.98416675067E-03 0.14692877701E-02 0.21401533638E-02 0.30620612434E-02 0.42573240912E-02
 0.57654636896E-02 0.76252685811E-02 0.97330208705E-02 0.12065102053E-01 0.14445402994E-01
 0.16742555914E-01 0.18735645132E-01 0.20226131875E-01 0.21002091275E-01 0.21020188133E-01
 0.20246487369E-01 0.18775699004E-01 0.16733472209E-01 0.14457309693E-01 0.12105725757E-01
 0.98056523277E-02 0.77097974591E-02 0.57845239910E-02 0.42294963097E-02 0.30181119196E-02
 0.20489911248E-02 0.13400360549E-02 0.92188871567E-03 0.58362416445E-03 0.28035492261E-03
 0.25125385747E-03 0.13447308798E-03 0.89509798964E-04 0.62566274161E-04 0.18751218456E-04
 0.15265128455E-04 0.29473034982E-05 0.14352460448E-04 0.16334922539E-05 0.76610996144E-05
 0.53424508364E-06 0.63127249115E-05 0.59048745817E-06 0.55186503021E-05 0.10648555975E-05
 0.55361190210E-05 0.14344642151E-05 0.62805894493E-05 0.36547099468E-05 0.96972719791E-05
 0.10321108061E-04 0.21613860137E-04 0.30431904036E-04 0.54652892554E-04 0.85644017234E-04
 0.14509029698E-03 0.23030692474E-03 0.37176175290E-03 0.58111515080E-03 0.90221913522E-03
 0.13667983740E-02 0.20349437571E-02 0.29631168747E-02 0.42073435242E-02 0.58246663175E-02
 0.78783235359E-02 0.10253271316E-01 0.13016749841E-01 0.16042256774E-01 0.19025638936E-01
 0.21693110322E-01 0.23835103380E-01 0.25220917837E-01 0.25715221418E-01 0.25215434874E-01
 0.23813564526E-01 0.21674468311E-01 0.19036162965E-01 0.16013273796E-01 0.12967064069E-01
 0.10236176290E-01 0.77638419445E-02 0.58162240548E-02 0.42366881010E-02 0.29923132091E-02
 0.21435817852E-02 0.14349199767E-02 0.89658782591E-03 0.57550172707E-03 0.45163153669E-03
 0.20580295877E-03 0.14507614945E-03 0.80238682049E-04 0.41440062274E-04 0.43613574841E-04
 0.23803191582E-04 0.20798453743E-04 0.26755178263E-05 0.10054871607E-04 0.29477057708E-05
 0.79761626774E-05 0.27138361389E-05 0.75768171899E-05 0.30937848851E-05 0.70075696762E-05
 0.37625307006E-05 0.75799973888E-05 0.49516452610E-05 0.10473504893E-04 0.10423395348E-04
 0.20167990488E-04 0.27996203570E-04 0.50794440177E-04 0.80007064529E-04 0.13684645017E-03
 0.22010466758E-03 0.36236111136E-03 0.57697586209E-03 0.91404029606E-03 0.14151843440E-02
 0.21556973660E-02 0.32116231941E-02 0.46745049013E-02 0.66482956808E-02 0.91895010471E-02
 0.12329479267E-01 0.16073616399E-01 0.20263979054E-01 0.24619369567E-01 0.28782964731E-01
 0.32447784257E-01 0.35188568481E-01 0.36679851740E-01 0.36665421501E-01 0.35202263056E-01
 0.32448373722E-01 0.28801848185E-01 0.24615934259E-01 0.20314758606E-01 0.16071969178E-01
 0.12365997877E-01 0.93020199164E-02 0.66413366212E-02 0.46613380878E-02 0.31806399741E-02
 0.23862275629E-02 0.15106168217E-02 0.97682805580E-03 0.59966553648E-03 0.27507244540E-03
 0.23282765878E-03 0.12234190975E-03 0.79224659234E-04 0.54180404841E-04 0.15731520219E-04
 0.13329037136E-04 0.58993451237E-05 0.16548182587E-04 0.70051192006E-05 0.11153401093E-04
 0.70904228517E-05 0.10628604794E-04 0.73156957827E-05 0.10435020765E-04 0.76842340704E-05
 0.98644159072E-05 0.89338210416E-05 0.11569314581E-04 0.13297304711E-04 0.20312191596E-04
 0.29506875707E-04 0.48517166621E-04 0.79230589617E-04 0.13268965934E-03 0.22103401947E-03
 0.36568927008E-03 0.59713954764E-03 0.96160035912E-03 0.15255386517E-02 0.23714663580E-02
 0.36231323103E-02 0.53997729113E-02 0.78806569315E-02 0.11162654359E-01 0.15402091428E-01
 0.20646251337E-01 0.26615021135E-01 0.33218566210E-01 0.40051676297E-01 0.46443018075E-01
 0.51633319004E-01 0.55025747424E-01 0.56194561120E-01 0.55030256644E-01 0.51636657802E-01
 0.46441644243E-01 0.40030768759E-01 0.33197581053E-01 0.26606548153E-01 0.20637725374E-01
 0.15357539149E-01 0.11075089315E-01 0.78719031746E-02 0.54198173171E-02 0.36449605376E-02
 0.25942155171E-02 0.16514971167E-02 0.99979653451E-03 0.61727488926E-03 0.46130684351E-03
 0.21637374540E-03 0.14186202617E-03 0.83402111734E-04 0.42709887453E-04 0.48506143908E-04