unknown system                          
   1.00000000000000     
     3.867484    0.000000    0.000000
     1.933742    3.349340    0.000000
     0.000000   -2.232891    3.157788
   Si
     2
Direct
  0.000000  0.000000  0.000000
  0.750000  0.500000  0.750000
 
   60   60   60
 0.20306586740E+04 0.85901746031E+02 0.91489937547E+02 0.59469762876E+02 0.22239004393E+02
 0.40340113649E+01 0.92193085627E-01 0.26829207335E+01 0.70290094843E+01 0.10961056956E+02
 0.13787769083E+02 0.15499726756E+02 0.16288219334E+02 0.16371855804E+02 0.15969004204E+02
 0.15272190357E+02 0.14439740630E+02 0.13572443507E+02 0.12710980788E+02 0.11885865819E+02
 0.11120669761E+02 0.10430682584E+02 0.98231069132E+01 0.92985959489E+01 0.88535962507E+01
 0.84828317148E+01 0.81813393701E+01 0.79456815048E+01 0.77742441440E+01 0.76668103415E+01
 0.76237878799E+01 0.76455202779E+01 0.77320111609E+01 0.78831856544E+01 0.80995674052E+01
 0.83830434542E+01 0.87372900779E+01 0.91674809255E+01 0.96790874674E+01 0.10275856672E+02
 0.10957333222E+02 0.11716507244E+02 0.12538247502E+02 0.13399065077E+02 0.14268413048E+02
 0.15105450460E+02 0.15809107756E+02 0.16220646468E+02 0.16147041509E+02 0.15369428594E+02
 0.13668768689E+02 0.10853363535E+02 0.69323227958E+01 0.25974092467E+01 0.20732740880E-01
 0.39868781242E+01 0.22240089639E+02 0.59552321797E+02 0.91630624386E+02 0.85802170738E+02
 0.91401380742E+02 0.89865020892E+02 0.73639160533E+02 0.34352076233E+02 0.89339680373E+01
 0.50213478797E-01 0.45385990101E+00 0.42846752430E+01 0.84597474002E+01 0.11762461480E+02
 0.13941482349E+02 0.15124569838E+02 0.15513387813E+02 0.15322851112E+02 0.14755486866E+02
 0.13983692457E+02 0.13139844585E+02 0.12286086035E+02 0.11455298817E+02 0.10674407119E+02
 0.99624163305E+01 0.93299529685E+01 0.87802812282E+01 0.83113583349E+01 0.79182961211E+01
 0.75956116017E+01 0.73388151861E+01 0.71451358057E+01 0.70134508839E+01 0.69437055247E+01
 0.69362108052E+01 0.69911815190E+01 0.71087279405E+01 0.72893046033E+01 0.75344063237E+01
 0.78471528321E+01 0.82323699740E+01 0.86958775034E+01 0.92429078163E+01 0.98758486163E+01
 0.10591756036E+02 0.11380256764E+02 0.12222481306E+02 0.13091482681E+02 0.13954182303E+02
 0.14747929972E+02 0.15339193275E+02 0.15553832560E+02 0.15186937841E+02 0.14020522029E+02
 0.11849023750E+02 0.85399363901E+01 0.43419606052E+01 0.48033340260E+00 0.81342199167E-01
 0.91413194566E+01 0.35261332654E+02 0.76514801405E+02 0.96549224521E+02 0.98107278520E+02
 0.96238970475E+02 0.74979479367E+02 0.39689885019E+02 0.12823892269E+02 0.89001190018E+00
 -.77403761708E+00 0.22083355992E+01 0.63049751817E+01 0.98762335120E+01 0.12409935750E+02
 0.13926509240E+02 0.14596838724E+02 0.14619158560E+02 0.14194812730E+02 0.13503123879E+02
 0.12693175468E+02 0.11855682713E+02 0.11028352200E+02 0.10240424112E+02 0.95139237139E+01
 0.88625822780E+01 0.82923019481E+01 0.78028390597E+01 0.73901230463E+01 0.70485889684E+01
 0.67730249743E+01 0.65596524746E+01 0.64064051236E+01 0.63125938447E+01 0.62782848500E+01
 0.63037432497E+01 0.63892086394E+01 0.65351039427E+01 0.67425843671E+01 0.70141641977E+01
 0.73540666452E+01 0.77679617210E+01 0.82618936707E+01 0.88404215847E+01 0.95042503646E+01
 0.10247854422E+02 0.11057729584E+02 0.11911876252E+02 0.12780857821E+02 0.13626525294E+02
 0.14356887538E+02 0.14820468069E+02 0.14834500588E+02 0.14192938887E+02 0.12691485838E+02
 0.10151492953E+02 0.65444972354E+01 0.23829564801E+01 -.66379055196E+00 0.10437402873E+01
 0.13405628798E+02 0.41610918401E+02 0.79493872685E+02 0.10216386164E+03 0.10192049006E+03
 0.61805187656E+02 0.35148012576E+02 0.12964542373E+02 0.14008375899E+01 -.12335308535E+01
 0.96082446961E+00 0.47464104879E+01 0.83496204912E+01 0.11072908023E+02 0.12817252200E+02
 0.13706834617E+02 0.13913012168E+02 0.13623953739E+02 0.13017912103E+02 0.12248762851E+02
 0.11430654660E+02 0.10611958689E+02 0.98230226321E+01 0.90879628529E+01 0.84230212985E+01
 0.78364808544E+01 0.73299278919E+01 0.69003408161E+01 0.65423939819E+01 0.62504519512E+01
 0.60199160108E+01 0.58478104534E+01 0.57327091414E+01 0.56742574255E+01 0.56726075032E+01
 0.57280491511E+01 0.58410016330E+01 0.60123720758E+01 0.62441222449E+01 0.65397622796E+01
 0.69044453993E+01 0.73443948180E+01 0.78655481876E+01 0.84715235939E+01 0.91612474167E+01
 0.99267839812E+01 0.10752001975E+02 0.11612623023E+02 0.12477873958E+02 0.13298474458E+02
 0.13957851694E+02 0.14298293620E+02 0.14136170297E+02 0.13276178934E+02 0.11538009865E+02
 0.87865971093E+01 0.51126010402E+01 0.12220220590E+01 -.10578636404E+01 0.16563321110E+01
 0.13731236004E+02 0.37050183505E+02 0.64749009255E+02 0.81972577114E+02 0.80291239606E+02
 0.23075020157E+02 0.92238277961E+01 0.96633394492E+00 -.12054044606E+01 0.57315891535E+00
 0.39530055211E+01 0.73729444912E+01 0.10092861597E+02 0.11925084633E+02 0.12938877141E+02
 0.13271510565E+02 0.13087880783E+02 0.12556054561E+02 0.11827967985E+02 0.11026233039E+02
 0.10216533134E+02 0.94290300241E+01 0.86888552400E+01 0.80139688981E+01 0.74145503677E+01
 0.68938198825E+01 0.64498387188E+01 0.60776995191E+01 0.57715695497E+01 0.55262123503E+01
 0.53378189037E+01 0.52041791409E+01 0.51243802925E+01 0.50983018128E+01 0.51261764703E+01
 0.52084141598E+01 0.53457638259E+01 0.55397491717E+01 0.57931863732E+01 0.61105092143E+01
 0.64976181331E+01 0.69610492583E+01 0.75064190166E+01 0.81363104342E+01 0.88479878486E+01
 0.96315029376E+01 0.10468810907E+02 0.11334369143E+02 0.12197312941E+02 0.12990199858E+02
 0.13586744870E+02 0.13829633013E+02 0.13543520065E+02 0.12554288323E+02 0.10713631946E+02
 0.79402678846E+01 0.44164247812E+01 0.89978194088E+00 -.98448281566E+00 0.12372544963E+01
 0.98210656053E+01 0.24135489137E+02 0.38266943322E+02 0.43800943407E+02 0.37258552472E+02
 0.42867742963E+01 0.17183544019E+00 -.68492542000E+00 0.10421408726E+01 0.40061259568E+01
 0.70733615408E+01 0.95989287538E+01 0.11362526472E+02 0.12384415998E+02 0.12764094989E+02
 0.12636693115E+02 0.12151984321E+02 0.11451916025E+02 0.10660766938E+02 0.98554334300E+01
 0.90678130316E+01 0.83229188042E+01 0.76395200926E+01 0.70290512938E+01 0.64959945448E+01
 0.60393579378E+01 0.56546914509E+01 0.53361006280E+01 0.50778600104E+01 0.48754188099E+01
 0.47257782191E+01 0.46273694658E+01 0.45796517673E+01 0.45826704972E+01 0.46367749617E+01
 0.47426103222E+01 0.49013901342E+01 0.51153442543E+01 0.53881426220E+01 0.57250435576E+01
 0.61325289558E+01 0.66172788417E+01 0.71844961247E+01 0.78357945419E+01 0.85670701212E+01
 0.93669293968E+01 0.10216262291E+02 0.11089346638E+02 0.11953165810E+02 0.12728033853E+02
 0.13284705052E+02 0.13474433760E+02 0.13138630557E+02 0.12131661114E+02 0.10342382730E+02
 0.77398246432E+01 0.45435311335E+01 0.14213864547E+01 -.43619178500E+00 0.39225495373E+00
 0.45962163271E+01 0.10791800086E+02 0.15410228573E+02 0.15230780634E+02 0.10423885133E+02
 0.26238797270E+00 0.62378630441E+00 0.23858357701E+01 0.49108906523E+01 0.74963165792E+01
 0.96625219035E+01 0.11206560977E+02 0.12115175633E+02 0.12451173586E+02 0.12317593778E+02
 0.11840603131E+02 0.11147154941E+02 0.10353632281E+02 0.95435602413E+01 0.87504613870E+01
 0.79981359340E+01 0.73052197946E+01 0.66836754235E+01 0.61387579550E+01 0.56701581847E+01
 0.52738039922E+01 0.49437852762E+01 0.46739893178E+01 0.44592125966E+01 0.42956927247E+01
 0.41811464493E+01 0.41144885570E+01 0.40954365795E+01 0.41241848200E+01 0.42012740665E+01
 0.43277062293E+01 0.45052674577E+01 0.47369389096E+01 0.50272057390E+01 0.53820428859E+01
 0.58083817188E+01 0.63129548715E+01 0.69005719893E+01 0.75720747076E+01 0.83224144157E+01
 0.91394238673E+01 0.10003825102E+02 0.10890766028E+02 0.11765053759E+02 0.12539245608E+02
 0.13090889805E+02 0.13285112047E+02 0.12986045464E+02 0.12079962063E+02 0.10493505499E+02
 0.82324300383E+01 0.55035452448E+01 0.28102473154E+01 0.89801087206E+00 0.44404936743E+00
 0.15001018223E+01 0.31198472206E+01 0.38578064338E+01 0.30260697902E+01 0.13586417561E+01
 0.29694748838E+01 0.45828890108E+01 0.65933850345E+01 0.86003528238E+01 0.10283880404E+02
 0.11484136959E+02 0.12170058817E+02 0.12373440644E+02 0.12167199793E+02 0.11651892918E+02
 0.10935779437E+02 0.10122786480E+02 0.92954962715E+01 0.84884304297E+01 0.77232332209E+01
 0.70175179596E+01 0.63830335208E+01 0.58252604033E+01 0.53442253112E+01 0.49360662277E+01
 0.45948271302E+01 0.43140608129E+01 0.40879870335E+01 0.39121251500E+01 0.37834574370E+01
 0.37002642663E+01 0.36618031966E+01 0.36679908977E+01 0.37192064466E+01 0.38162815781E+01
 0.39606851078E+01 0.41548465305E+01 0.44025007322E+01 0.47088831879E+01 0.50805830415E+01
 0.55248913985E+01 0.60485758197E+01 0.66561653374E+01 0.73480209128E+01 0.81186482001E+01
 0.89558080318E+01 0.98409075218E+01 0.10750863287E+02 0.11648820253E+02 0.12447280027E+02
 0.13035407935E+02 0.13296388783E+02 0.13119883876E+02 0.12423206282E+02 0.11166448909E+02
 0.93771704945E+01 0.72224338521E+01 0.50440677033E+01 0.32739287312E+01 0.22304339471E+01
 0.18939402390E+01 0.18986397254E+01 0.18669577661E+01 0.17955404784E+01 0.20472027864E+01
 0.74709515203E+01 0.88848835299E+01 0.10258871710E+02 0.11391074954E+02 0.12166453977E+02
 0.12547688930E+02 0.12544352206E+02 0.12204788413E+02 0.11605571315E+02 0.10835076165E+02
 0.99824934043E+01 0.91236569779E+01 0.82920579426E+01 0.75065188053E+01 0.67828919002E+01
 0.61320308371E+01 0.55590929332E+01 0.50640557861E+01 0.46430429533E+01 0.42899636220E+01
 0.39980438933E+01 0.37609835424E+01 0.35736399161E+01 0.34322755145E+01 0.33344880607E+01
 0.32789701955E+01 0.32652331681E+01 0.32933948617E+01 0.33640939759E+01 0.34785558365E+01
 0.36387982698E+01 0.38479224179E+01 0.41103830932E+01 0.44320876859E+01 0.48201537765E+01
 0.52821868604E+01 0.58250339650E+01 0.64531217835E+01 0.71666732948E+01 0.79602621729E+01
 0.88222302982E+01 0.97353791243E+01 0.10679023434E+02 0.11616670406E+02 0.12466828816E+02
 0.13132921543E+02 0.13517959428E+02 0.13536269430E+02 0.13131460148E+02 0.12288854967E+02
 0.11045935346E+02 0.95267075953E+01 0.79516914256E+01 0.65757302254E+01 0.55833510522E+01
 0.50176181411E+01 0.48155465578E+01 0.49276901410E+01 0.53879494717E+01 0.62492468874E+01
 0.11527734472E+02 0.12277175107E+02 0.12852083897E+02 0.13173820879E+02 0.13206219909E+02
 0.12947356866E+02 0.12428854684E+02 0.11707682098E+02 0.10853850234E+02 0.99415915205E+01
 0.90368140148E+01 0.81693162183E+01 0.73548310369E+01 0.66069660004E+01 0.59351401140E+01
 0.53437006562E+01 0.48321991842E+01 0.43964961052E+01 0.40302378451E+01 0.37262931859E+01
 0.34778748443E+01 0.32792347525E+01 0.31259561964E+01 0.30149482866E+01 0.29442746901E+01
 0.29129325727E+01 0.29206623107E+01 0.29678345931E+01 0.30554383552E+01 0.31851770037E+01
 0.33596608547E+01 0.35826510223E+01 0.38592639697E+01 0.41960007589E+01 0.46004461905E+01
 0.50805158073E+01 0.56432254383E+01 0.62931107899E+01 0.70306022861E+01 0.78508047602E+01
 0.87431630265E+01 0.96923429155E+01 0.10680317239E+02 0.11673749047E+02 0.12600661641E+02
 0.13379374774E+02 0.13931757974E+02 0.14192999020E+02 0.14125496278E+02 0.13728842273E+02
 0.13041987477E+02 0.12152730172E+02 0.11199726421E+02 0.10339114487E+02 0.96956339240E+01
 0.93353657992E+01 0.92758726674E+01 0.95116661086E+01 0.10017420925E+02 0.10727657002E+02
 0.14426612392E+02 0.14499241438E+02 0.14389861325E+02 0.14070566707E+02 0.13538598980E+02
 0.12817143346E+02 0.11949472629E+02 0.10990925228E+02 0.10002472576E+02 0.90391520248E+01
 0.81249819744E+01 0.72728146054E+01 0.64938742016E+01 0.57958322343E+01 0.51818699614E+01
 0.46507968335E+01 0.41979747805E+01 0.38166440063E+01 0.34992570976E+01 0.32385465703E+01
 0.30282045498E+01 0.28631874967E+01 0.27397436549E+01 0.26552882850E+01 0.26082330215E+01
 0.25978351971E+01 0.26240959214E+01 0.26877161746E+01 0.27901170564E+01 0.29335316545E+01
 0.31211667103E+01 0.33574022350E+01 0.36479489882E+01 0.39998359327E+01 0.44210813234E+01
 0.49199373609E+01 0.55036985151E+01 0.61772150752E+01 0.69414196755E+01 0.77922941953E+01
 0.87207019592E+01 0.97133304467E+01 0.10754646671E+02 0.11816798994E+02 0.12838641320E+02
 0.13752107299E+02 0.14494668872E+02 0.15016772167E+02 0.15291255844E+02 0.15320588551E+02
 0.15136791287E+02 0.14798894321E+02 0.14389450801E+02 0.13999854950E+02 0.13707164750E+02
 0.13558710663E+02 0.13567858048E+02 0.13717119268E+02 0.13959138713E+02 0.14222699613E+02
 0.16158510223E+02 0.15681734290E+02 0.15045640311E+02 0.14254516325E+02 0.13330186713E+02
 0.12308647628E+02 0.11235217868E+02 0.10160795008E+02 0.91298551793E+01 0.81602226644E+01
 0.72625522270E+01 0.64459385906E+01 0.57162853320E+01 0.50754494864E+01 0.45213012169E+01
 0.40485274681E+01 0.36498351100E+01 0.33171913430E+01 0.30428333728E+01 0.28199200059E+01
 0.26428292352E+01 0.25071937590E+01 0.24097976724E+01 0.23484391973E+01 0.23218190666E+01
 0.23294699773E+01 0.23717188375E+01 0.24496739728E+01 0.25652439192E+01 0.27212061949E+01
 0.29213373692E+01 0.31705818501E+01 0.34751832178E+01 0.38426520571E+01 0.42814287159E+01
 0.48001411293E+01 0.54064611381E+01 0.61057098280E+01 0.68995130014E+01 0.77849007368E+01
 0.87542125635E+01 0.97959733250E+01 0.10896574875E+02 0.12034346517E+02 0.13159060109E+02
 0.14213423683E+02 0.15146128130E+02 0.15916499814E+02 0.16500422566E+02 0.16894560724E+02
 0.17116249331E+02 0.17198770595E+02 0.17185258505E+02 0.17120804387E+02 0.17042457187E+02
 0.16970320406E+02 0.16904226071E+02 0.16824970061E+02 0.16699342232E+02 0.16488938513E+02
 0.16921912774E+02 0.16032505337E+02 0.15022776839E+02 0.13918230040E+02 0.12752926721E+02
 0.11567385629E+02 0.10405915899E+02 0.93031689490E+01 0.82725111140E+01 0.73234543329E+01
 0.64635842394E+01 0.56973307725E+01 0.50253114951E+01 0.44444307050E+01 0.39486311391E+01
 0.35300155366E+01 0.31800146777E+01 0.28903484323E+01 0.26536506518E+01 0.24637539866E+01
 0.23157203999E+01 0.22057399942E+01 0.21310065047E+01 0.20896312019E+01 0.20806057346E+01
 0.21037921817E+01 0.21599146073E+01 0.22505448554E+01 0.23781007535E+01 0.25458891553E+01
 0.27582147373E+01 0.30205342569E+01 0.33395775602E+01 0.37233077798E+01 0.41805834824E+01
 0.47204333722E+01 0.53509585053E+01 0.60780160096E+01 0.69039700242E+01 0.78268620706E+01
 0.88402976224E+01 0.99341457262E+01 0.11095847128E+02 0.12308419376E+02 0.13532206706E+02
 0.14717454214E+02 0.15818933786E+02 0.16799362658E+02 0.17632210459E+02 0.18303984750E+02
 0.18813997558E+02 0.19171442032E+02 0.19390807849E+02 0.19487111416E+02 0.19471655736E+02
 0.19349155281E+02 0.19117054096E+02 0.18767348119E+02 0.18289864245E+02 0.17675929172E+02
 0.16943931453E+02 0.15774024454E+02 0.14529148252E+02 0.13245557173E+02 0.11963652774E+02
 0.10722034925E+02 0.95489263785E+01 0.84558142785E+01 0.74523056914E+01 0.65453599506E+01
 0.57385017209E+01 0.50314390399E+01 0.44202811798E+01 0.38983026743E+01 0.34570275698E+01
 0.30873529654E+01 0.27804790516E+01 0.25285190711E+01 0.23247783473E+01 0.21637803594E+01
 0.20411599078E+01 0.19535359233E+01 0.18984330496E+01 0.18742664408E+01 0.18803631420E+01
 0.19169802483E+01 0.19852943517E+01 0.20873668068E+01 0.22261178747E+01 0.24053527712E+01
 0.26298628782E+01 0.29055771243E+01 0.32396787098E+01 0.36405583983E+01 0.41174735778E+01
 0.46798351578E+01 0.53361466284E+01 0.60927470182E+01 0.69526207648E+01 0.79145806821E+01
 0.89730608265E+01 0.10118566008E+02 0.11338564379E+02 0.12618381575E+02 0.13925745796E+02
 0.15217798921E+02 0.16450621343E+02 0.17585925782E+02 0.18591727401E+02 0.19443592571E+02
 0.20124742894E+02 0.20625057053E+02 0.20939322784E+02 0.21065540151E+02 0.21003654105E+02
 0.20755144526E+02 0.20323321214E+02 0.19714111311E+02 0.18937192561E+02 0.18007061473E+02
 0.16451887569E+02 0.15116696250E+02 0.13750853226E+02 0.12396227555E+02 0.11090009096E+02
 0.98535748655E+01 0.87010906134E+01 0.76434589973E+01 0.66879983769E+01 0.58380705671E+01
 0.50929987348E+01 0.44484515224E+01 0.38972671787E+01 0.34305380308E+01 0.30387159028E+01
 0.27125302933E+01 0.24435994978E+01 0.22247185632E+01 0.20498927362E+01 0.19142302571E+01
 0.18138082356E+01 0.17455887740E+01 0.17074094541E+01 0.16980258757E+01 0.17171608917E+01
 0.17655202753E+01 0.18447609959E+01 0.19574320634E+01 0.21069326361E+01 0.22975336185E+01
 0.25344807913E+01 0.28241456158E+01 0.31741331768E+01 0.35932205860E+01 0.40910046832E+01
 0.46771931597E+01 0.53605698584E+01 0.61477781867E+01 0.70421577963E+01 0.80428947381E+01
 0.91446719323E+01 0.10337838072E+02 0.11608901569E+02 0.12940992767E+02 0.14309890904E+02
 0.15675269428E+02 0.16992824623E+02 0.18220810524E+02 0.19320894144E+02 0.20259226130E+02
 0.21007304247E+02 0.21542631706E+02 0.21849156012E+02 0.21917611503E+02 0.21745880457E+02
 0.21339211482E+02 0.20710206833E+02 0.19878453437E+02 0.18869883004E+02 0.17715832967E+02
 0.15646708004E+02 0.14240277217E+02 0.12843350904E+02 0.11489663723E+02 0.10201696470E+02
 0.89971701805E+01 0.78892596349E+01 0.68865635041E+01 0.59930660437E+01 0.52083326820E+01
 0.45280729597E+01 0.39450501334E+01 0.34501901770E+01 0.30336875242E+01 0.26859254787E+01
 0.23981019645E+01 0.21625418321E+01 0.19727546972E+01 0.18233424816E+01 0.17098665214E+01
 0.16287558622E+01 0.15772914186E+01 0.15536542709E+01 0.15569966495E+01 0.15874889833E+01
 0.16463139473E+01 0.17356093135E+01 0.18583920384E+01 0.20185125787E+01 0.22206809119E+01
 0.24705722449E+01 0.27749697344E+01 0.31418518084E+01 0.35803042015E+01 0.41001478639E+01
 0.47112282130E+01 0.54223990700E+01 0.62403324122E+01 0.71683586519E+01 0.82055557961E+01
 0.93462378874E+01 0.10579853802E+02 0.11891146481E+02 0.13260315807E+02 0.14662943935E+02
 0.16063394215E+02 0.17416923027E+02 0.18677215467E+02 0.19800319703E+02 0.20745736532E+02
 0.21478235082E+02 0.21969447729E+02 0.22199868461E+02 0.22159940559E+02 0.21851025178E+02
 0.21285427515E+02 0.20485422296E+02 0.19482018219E+02 0.18312682705E+02 0.17019421347E+02
 0.14694111571E+02 0.13283442743E+02 0.11902230637E+02 0.10577861197E+02 0.93320148136E+01
 0.81807905898E+01 0.71348032218E+01 0.61993684163E+01 0.53749199600E+01 0.46577350076E+01
 0.40409338564E+01 0.35156241995E+01 0.30720160175E+01 0.27003500999E+01 0.23915443159E+01
 0.21375397420E+01 0.19313975132E+01 0.17672391367E+01 0.16401314349E+01 0.15459962888E+01
 0.14815866940E+01 0.14445292044E+01 0.14334018130E+01 0.14478037409E+01 0.14883809801E+01
 0.15567940087E+01 0.16556425290E+01 0.17883850459E+01 0.19592985032E+01 0.21735093417E+01
 0.24370933882E+01 0.27571968746E+01 0.31420897684E+01 0.36010424020E+01 0.41439297615E+01
 0.47805177188E+01 0.55194625683E+01 0.63671383069E+01 0.73264663114E+01 0.83959315810E+01
 0.95689147369E+01 0.10833362592E+02 0.12171705374E+02 0.13560864844E+02 0.14972231683E+02
 0.16371628455E+02 0.17715412891E+02 0.18955449599E+02 0.20043556684E+02 0.20935903252E+02
 0.21594723789E+02 0.21991181819E+02 0.22107304958E+02 0.21937571709E+02 0.21489526110E+02
 0.20783131601E+02 0.19849101345E+02 0.18726805968E+02 0.17461219136E+02 0.16101010513E+02
 0.13700365223E+02 0.12312402095E+02 0.10968462132E+02 0.96941825100E+01 0.85089118543E+01
 0.74257842813E+01 0.64520097192E+01 0.55894370491E+01 0.48354058228E+01 0.41838265524E+01
 0.36263621200E+01 0.31535547864E+01 0.27557627398E+01 0.24238250163E+01 0.21494417498E+01
 0.19253161754E+01 0.17451408096E+01 0.16035177631E+01 0.14958863522E+01 0.14185001045E+01
 0.13684613956E+01 0.13437947293E+01 0.13435248940E+01 0.13677260020E+01 0.14175202403E+01
 0.14950260561E+01 0.16032769676E+01 0.17461462700E+01 0.19283134655E+01 0.21552926412E+01
 0.24335130828E+01 0.27704050310E+01 0.31744101533E+01 0.36548204220E+01 0.42213612627E+01
 0.48834778367E+01 0.56493493207E+01 0.65247271717E+01 0.75117458497E+01 0.86078665775E+01
 0.98050772246E+01 0.11089396662E+02 0.12440654331E+02 0.13832478888E+02 0.15232463629E+02
 0.16602575802E+02 0.17899995618E+02 0.19078636490E+02 0.20088066860E+02 0.20886105664E+02
 0.21435435101E+02 0.21710066082E+02 0.21696675788E+02 0.21395831670E+02 0.20821972977E+02
 0.20002137197E+02 0.18974523841E+02 0.17782011877E+02 0.16475298760E+02 0.15100538649E+02
 0.12709510655E+02 0.11363077232E+02 0.10074150415E+02 0.88653909359E+01 0.77527449072E+01
 0.67457240268E+01 0.58480300116E+01 0.50584841471E+01 0.43721692295E+01 0.37816465071E+01
 0.32780981749E+01 0.28522725070E+01 0.24951631551E+01 0.21984170629E+01 0.19545177701E+01
 0.17568202968E+01 0.15995174956E+01 0.14776012929E+01 0.13868557128E+01 0.13238917980E+01
 0.12862138834E+01 0.12722947495E+01 0.12816343268E+01 0.13147820854E+01 0.13733151050E+01
 0.14597785975E+01 0.15776088142E+01 0.17310654589E+01 0.19251987120E+01 0.21658629941E+01
 0.24597660717E+01 0.28145119825E+01 0.32385679386E+01 0.37410702493E+01 0.43313924798E+01
 0.50184344053E+01 0.58096472377E+01 0.67098743955E+01 0.77201377728E+01 0.88365189159E+01
 0.10049265062E+02 0.11342201100E+02 0.12692475890E+02 0.14070645952E+02 0.15441119334E+02
 0.16763037804E+02 0.17991727104E+02 0.19080840817E+02 0.19985225730E+02 0.20664348803E+02
 0.21085900894E+02 0.21229017965E+02 0.21086521685E+02 0.20665719855E+02 0.19987594677E+02
 0.19084552658E+02 0.17997197249E+02 0.16770722711E+02 0.15451487265E+02 0.14084147456E+02
 0.11754974840E+02 0.10465100223E+02 0.92437899159E+01 0.81099370760E+01 0.70756405058E+01
 0.61468000999E+01 0.53240641013E+01 0.46040042899E+01 0.39803638577E+01 0.34452225355E+01
 0.29899580888E+01 0.26059416905E+01 0.22849679853E+01 0.20194704497E+01 0.18025976285E+01
 0.16282248460E+01 0.14909566297E+01 0.13861489710E+01 0.13099577126E+01 0.12594047713E+01
 0.12324475400E+01 0.12280362057E+01 0.12461465784E+01 0.12877811391E+01 0.13549376784E+01
 0.14505521976E+01 0.15784293736E+01 0.17431781447E+01 0.19501695307E+01 0.22055258386E+01
 0.25161329432E+01 0.28896418294E+01 0.33343987100E+01 0.38592257583E+01 0.44729777920E+01
 0.51838297066E+01 0.59983015118E+01 0.69200896947E+01 0.79488271058E+01 0.90789217510E+01
 0.10298619822E+02 0.11589406188E+02 0.12925815318E+02 0.14275699323E+02 0.15600998722E+02
 0.16859075493E+02 0.18004667033E+02 0.18992469798E+02 0.19780246345E+02 0.20332188163E+02
 0.20622112570E+02 0.20635993731E+02 0.20373376957E+02 0.19847407699E+02 0.19083473510E+02
 0.18116723765E+02 0.16988913280E+02 0.15745064400E+02 0.14430364245E+02 0.13087562054E+02
 0.10862893268E+02 0.96397827403E+01 0.84931491907E+01 0.74378790940E+01 0.64823595239E+01
 0.56293696853E+01 0.48772460609E+01 0.42211474225E+01 0.36542497301E+01 0.31687400035E+01
 0.27565415270E+01 0.24097707857E+01 0.21209796075E+01 0.18832615630E+01 0.16902984522E+01
 0.15363996032E+01 0.14165575492E+01 0.13265203790E+01 0.12628692471E+01 0.12230881043E+01
 0.12056168862E+01 0.12098843097E+01 0.12363193691E+01 0.12863414438E+01 0.13623291245E+01
 0.14675693472E+01 0.16061922057E+01 0.17831020116E+01 0.20039185336E+01 0.22749390343E+01
 0.26031177326E+01 0.29960348030E+01 0.34617986153E+01 0.40088045732E+01 0.46452742150E+01
 0.53785260910E+01 0.62139824003E+01 0.71539796230E+01 0.81965091153E+01 0.93340478834E+01
 0.10552642053E+02 0.11831380042E+02 0.13142354057E+02 0.14451174386E+02 0.15718078811E+02
 0.16899660724E+02 0.17951202783E+02 0.18829528314E+02 0.19496168905E+02 0.19920520559E+02
 0.20082570807E+02 0.19974774674E+02 0.19602762265E+02 0.18984757334E+02 0.18149818175E+02
 0.17135208110E+02 0.15983307343E+02 0.14738474700E+02 0.13444181679E+02 0.12140621890E+02
 0.10050739838E+02 0.88996614625E+01 0.78297794216E+01 0.68522207011E+01 0.59721919219E+01
 0.51900711366E+01 0.45026571096E+01 0.39043902855E+01 0.33883956598E+01 0.29472621492E+01
 0.25735464687E+01 0.22600503593E+01 0.19999525967E+01 0.17868774608E+01 0.16149573288E+01
 0.14789140171E+01 0.13741561124E+01 0.12968758603E+01 0.12441291681E+01 0.12138903900E+01
 0.12050828058E+01 0.12175909041E+01 0.12522600205E+01 0.13108843253E+01 0.13961795157E+01
 0.15117357007E+01 0.16619504962E+01 0.18519504826E+01 0.20875158790E+01 0.23750219826E+01
 0.27213967187E+01 0.31340670663E+01 0.36208362697E+01 0.41896124283E+01 0.48479109491E+01
 0.56020850588E+01 0.64562956082E+01 0.74112992472E+01 0.84631934136E+01 0.96022906913E+01
 0.10812296197E+02 0.12069934076E+02 0.13345126555E+02 0.14601785870E+02 0.15799241391E+02
 0.16894284037E+02 0.17843752355E+02 0.18607500075E+02 0.19151482306E+02 0.19450607299E+02
 0.19490964304E+02 0.19271087446E+02 0.18802053673E+02 0.18106407191E+02 0.17216096864E+02
 0.16169751018E+02 0.15009664834E+02 0.13778843674E+02 0.12518363435E+02 0.11265216823E+02
 0.93275720315E+01 0.82495955751E+01 0.72547993908E+01 0.63511095307E+01 0.55412516296E+01
 0.48239257475E+01 0.41950260776E+01 0.36487357729E+01 0.31783845554E+01 0.27770310951E+01
 0.24378011263E+01 0.21540566769E+01 0.19194826659E+01 0.17281586020E+01 0.15746493853E+01
 0.14541168944E+01 0.13624346545E+01 0.12962844237E+01 0.12532217991E+01 0.12317103722E+01
 0.12311334051E+01 0.12517942703E+01 0.12949120283E+01 0.13626102882E+01 0.14578913580E+01
 0.15845877926E+01 0.17472904330E+01 0.19512624550E+01 0.22023562553E+01 0.25069470075E+01
 0.28718792020E+01 0.33043929596E+01 0.38119658856E+01 0.44019888901E+01 0.50812036970E+01
 0.58548695509E+01 0.67256891436E+01 0.76925921773E+01 0.87495297556E+01 0.98844589032E+01
 0.11078689066E+02 0.12306728086E+02 0.13536717763E+02 0.14731501117E+02 0.15850317611E+02
 0.16851071038E+02 0.17693046441E+02 0.18339865917E+02 0.18762384900E+02 0.18941173010E+02
 0.18868230855E+02 0.18547683170E+02 0.17995345862E+02 0.17237248169E+02 0.16307348374E+02
 0.15244771866E+02 0.14090912008E+02 0.12886685147E+02 0.11670154704E+02 0.10474665558E+02
 0.86956790110E+01 0.76889385345E+01 0.67653267880E+01 0.59302398583E+01 0.51845979794E+01
 0.45260057869E+01 0.39498739073E+01 0.34503618994E+01 0.30210688122E+01 0.26554695882E+01
 0.23471520422E+01 0.20899359294E+01 0.18779504622E+01 0.17057192307E+01 0.15682677017E+01
 0.14612425852E+01 0.13810214905E+01 0.13247946379E+01 0.12906119333E+01 0.12774008935E+01
 0.12849677013E+01 0.13139925426E+01 0.13660230694E+01 0.14434612157E+01 0.15495340300E+01
 0.16882416494E+01 0.18642840815E+01 0.20829783112E+01 0.23501814641E+01 0.26722279982E+01
 0.30558672600E+01 0.35081577056E+01 0.40362481618E+01 0.46469693026E+01 0.53461795978E+01
 0.61378585445E+01 0.70230044368E+01 0.79984561658E+01 0.90558007654E+01 0.10180539732E+02
 0.11351667611E+02 0.12541776029E+02 0.13717749046E+02 0.14842069923E+02 0.15874713124E+02
 0.16775538785E+02 0.17507032401E+02 0.18037146477E+02 0.18341927076E+02 0.18407580219E+02
 0.18231677581E+02 0.17823320440E+02 0.17202248183E+02 0.16397045370E+02 0.15442722398E+02
 0.14377993382E+02 0.13242555058E+02 0.12074608761E+02 0.10908796029E+02 0.97746577045E+01
 0.81530382937E+01 0.72140978954E+01 0.63568892027E+01 0.55849036306E+01 0.48977933462E+01
 0.42924592529E+01 0.37640540351E+01 0.33067903543E+01 0.29145092935E+01 0.25810270271E+01
 0.23003206464E+01 0.20666280341E+01 0.18745240910E+01 0.17190078968E+01 0.15956067559E+01
 0.15004840899E+01 0.14305325343E+01 0.13834389435E+01 0.13577185088E+01 0.13527246192E+01
 0.13686451267E+01 0.14064932893E+01 0.14680952362E+01 0.15560696945E+01 0.16737937928E+01
 0.18253523546E+01 0.20154751260E+01 0.22494719251E+01 0.25331738424E+01 0.28728754403E+01
 0.32752497735E+01 0.37471830383E+01 0.42954612777E+01 0.49262490561E+01 0.56443334310E+01
 0.64521598904E+01 0.73487459738E+01 0.83286059222E+01 0.93808424855E+01 0.10488555560E+02
 0.11628687805E+02 0.12772387501E+02 0.13885929698E+02 0.14932199880E+02 0.15872701352E+02
 0.16669986601E+02 0.17290331796E+02 0.17706387710E+02 0.17899481064E+02 0.17861241279E+02
 0.17594306159E+02 0.17112004257E+02 0.16437082180E+02 0.15599691304E+02 0.14634931530E+02
 0.13580258759E+02 0.12473015325E+02 0.11348271535E+02 0.10237100914E+02 0.91653638550E+01
 0.76958648129E+01 0.68208286358E+01 0.60252955218E+01 0.53113465682E+01 0.46777348817E+01
 0.41208846933E+01 0.36357907903E+01 0.32167298316E+01 0.28577535855E+01 0.25529871199E+01
 0.22967884028E+01 0.20838341702E+01 0.19091842945E+01 0.17683534678E+01 0.16573959459E+01
 0.15729939317E+01 0.15125352160E+01 0.14741689092E+01 0.14568353219E+01 0.14602729894E+01
 0.14850095856E+01 0.15323432954E+01 0.16043184814E+01 0.17036966498E+01 0.18339228328E+01
 0.19990888799E+01 0.22038968266E+01 0.24536238723E+01 0.27540821221E+01 0.31115505484E+01
 0.35326378117E+01 0.40240212967E+01 0.45920095588E+01 0.52418979924E+01 0.59771289203E+01
 0.67983175200E+01 0.77022495827E+01 0.86809827434E+01 0.97211831660E+01 0.10803808314E+02
 0.11904214879E+02 0.12992741323E+02 0.14035791089E+02 0.14997417401E+02 0.15841368613E+02
 0.16533483587E+02 0.17044235876E+02 0.17351140058E+02 0.17440691656E+02 0.17309544271E+02
 0.16964739094E+02 0.16422965437E+02 0.15708996373E+02 0.14853561161E+02 0.13890957836E+02
 0.12856679934E+02 0.11785260564E+02 0.10708461930E+02 0.96538834738E+01 0.86440305833E+01
 0.73206401263E+01 0.65058032896E+01 0.57676936388E+01 0.51073332409E+01 0.45228105389E+01
 0.40102029122E+01 0.35644031575E+01 0.31797713696E+01 0.28505852492E+01 0.25713083353E+01
 0.23367255522E+01 0.21420045454E+01 0.19827326295E+01 0.18549604236E+01 0.17552628618E+01
 0.16808124552E+01 0.16294513218E+01 0.15997475205E+01 0.15910257623E+01 0.16033698910E+01
 0.16376017641E+01 0.16952460648E+01 0.17784920877E+01 0.18901619720E+01 0.20336912476E+01
 0.22131226214E+01 0.24331074144E+01 0.26989000336E+01 0.30163192144E+01 0.33916377036E+01
 0.38313545362E+01 0.43418073272E+01 0.49286004330E+01 0.55958579135E+01 0.63453511604E+01
 0.71755884434E+01 0.80809757048E+01 0.90511581720E+01 0.10070633319E+02 0.11118698536E+02
 0.12169775064E+02 0.13194139972E+02 0.14159093616E+02 0.15030572978E+02 0.15775172907E+02
 0.16362452890E+02 0.16767305070E+02 0.16972078175E+02 0.16968133554E+02 0.16756576818E+02
 0.16348051129E+02 0.15761652888E+02 0.15023180486E+02 0.14163006995E+02 0.13213865007E+02
 0.12208766994E+02 0.11179197963E+02 0.10153646574E+02 0.91565038929E+01 0.82073493545E+01
 0.70252596486E+01 0.62672807133E+01 0.55828061584E+01 0.49720451954E+01 0.44325838163E+01
 0.39602549174E+01 0.35499206676E+01 0.31960889590E+01 0.28933332635E+01 0.26365300579E+01