   2   2   1   0
  0.2045223E+02  0.3867484E-09  0.3867485E-09  0.3867483E-09  0.5000000E-15
  1.000000000000000E-004
  CAR 
 unknown system                          
     79.11915584    -10.26126661  301      5.67824206      1.00000000
    -10.261  0.0000E+00  0.0000E+00
     -9.963  0.0000E+00  0.0000E+00
     -9.665  0.0000E+00  0.0000E+00
     -9.367  0.0000E+00  0.0000E+00
     -9.070  0.0000E+00  0.0000E+00
     -8.772  0.0000E+00  0.0000E+00
     -8.474  0.0000E+00  0.0000E+00
     -8.176  0.0000E+00  0.0000E+00
     -7.878  0.0000E+00  0.0000E+00
     -7.580  0.0000E+00  0.0000E+00
     -7.282  0.0000E+00  0.0000E+00
     -6.984  0.0000E+00  0.0000E+00
     -6.686  0.0000E+00  0.0000E+00
     -6.388  0.0000E+00  0.0000E+00
     -6.090  0.0000E+00  0.1220E+00
     -5.792  0.0000E+00  0.2195E+00
     -5.494  0.0000E+00  0.2805E+00
     -5.196  0.0000E+00  0.3293E+00
     -4.898  0.0000E+00  0.3659E+00
     -4.601  0.0000E+00  0.4146E+00
     -4.303  0.4093E-01  0.5610E+00
     -4.005  0.0000E+00  0.6829E+00
     -3.707  0.0000E+00  0.7927E+00
     -3.409  0.0000E+00  0.9756E+00
     -3.111  0.8086E-01  0.1207E+01
     -2.813  0.0000E+00  0.1451E+01
     -2.515  0.4093E-01  0.1634E+01
     -2.217  0.4078E-01  0.1829E+01
     -1.919  0.4086E-01  0.2232E+01
     -1.621  0.4093E-01  0.2390E+01
     -1.323  0.4093E-01  0.2549E+01
     -1.025  0.0000E+00  0.2793E+01
     -0.727  0.0000E+00  0.3061E+01
     -0.429  0.0000E+00  0.3195E+01
     -0.131  0.0000E+00  0.3280E+01
      0.166  0.3753E-12  0.3341E+01
      0.464  0.0000E+00  0.3451E+01
      0.762  0.4093E-01  0.3598E+01
      1.060  0.0000E+00  0.3598E+01
      1.358  0.0000E+00  0.3659E+01
      1.656  0.1356E-09  0.3915E+01
      1.954  0.4093E-01  0.4110E+01
      2.252  0.0000E+00  0.4402E+01
      2.550  0.6973E-03  0.4659E+01
      2.848  0.9046E-01  0.5527E+01
      3.146  0.2973E-03  0.6220E+01
      3.444  0.4885E-03  0.6768E+01
      3.742  0.0000E+00  0.7000E+01
      4.040  0.0000E+00  0.7122E+01
      4.338  0.4093E-01  0.7232E+01
      4.635  0.0000E+00  0.7354E+01
      4.933  0.2126E-01  0.7470E+01
      5.231  0.0000E+00  0.7598E+01
      5.529  0.4093E-01  0.7793E+01
      5.827  0.0000E+00  0.8000E+01
      6.125  0.0000E+00  0.8000E+01
      6.423  0.8186E-01  0.8537E+01
      6.721  0.0000E+00  0.9000E+01
      7.019  0.2939E-08  0.9329E+01
      7.317  0.0000E+00  0.9732E+01
      7.615  0.4429E-11  0.9951E+01
      7.913  0.0000E+00  0.1018E+02
      8.211  0.4100E-01  0.1054E+02
      8.509  0.2507E-01  0.1104E+02
      8.807  0.4093E-01  0.1139E+02
      9.104  0.1611E-13  0.1159E+02
      9.402  0.4301E-01  0.1179E+02
      9.700  0.0000E+00  0.1200E+02
      9.998  0.0000E+00  0.1217E+02
     10.296  0.5333E-07  0.1239E+02
     10.594  0.4093E-01  0.1255E+02
     10.892  0.0000E+00  0.1277E+02
     11.190  0.0000E+00  0.1295E+02
     11.488  0.1717E-02  0.1318E+02
     11.786  0.0000E+00  0.1360E+02
     12.084  0.4093E-01  0.1398E+02
     12.382  0.0000E+00  0.1430E+02
     12.680  0.4088E-01  0.1467E+02
     12.978  0.8520E-01  0.1496E+02
     13.276  0.4093E-01  0.1530E+02
     13.574  0.4093E-01  0.1577E+02
     13.871  0.7707E-02  0.1610E+02
     14.169  0.0000E+00  0.1634E+02
     14.467  0.0000E+00  0.1662E+02
     14.765  0.1633E+00  0.1698E+02
     15.063  0.4093E-01  0.1729E+02
     15.361  0.5646E-08  0.1780E+02
     15.659  0.6817E-16  0.1843E+02
     15.957  0.0000E+00  0.1876E+02
     16.255  0.4093E-01  0.1922E+02
     16.553  0.0000E+00  0.1994E+02
     16.851  0.8474E-01  0.2051E+02
     17.149  0.1203E+00  0.2097E+02
     17.447  0.4093E-01  0.2135E+02
     17.745  0.2584E-01  0.2189E+02
     18.043  0.4093E-01  0.2241E+02
     18.340  0.4544E-16  0.2317E+02
     18.638  0.2270E-04  0.2387E+02
     18.936  0.4093E-01  0.2445E+02
     19.234  0.0000E+00  0.2502E+02
     19.532  0.1401E-02  0.2548E+02
     19.830  0.4934E-08  0.2594E+02
     20.128  0.4092E-01  0.2627E+02
     20.426  0.8186E-01  0.2676E+02
     20.724  0.8225E-01  0.2699E+02
     21.022  0.4093E-01  0.2732E+02
     21.320  0.4034E-01  0.2763E+02
     21.618  0.3927E-01  0.2802E+02
     21.916  0.4067E-01  0.2851E+02
     22.214  0.1098E+00  0.2891E+02
     22.512  0.4093E-01  0.2935E+02
     22.809  0.4094E-01  0.2982E+02
     23.107  0.4256E-02  0.3026E+02
     23.405  0.0000E+00  0.3067E+02
     23.703  0.7269E-01  0.3107E+02
     24.001  0.8186E-01  0.3159E+02
     24.299  0.2413E-02  0.3242E+02
     24.597  0.1265E-01  0.3299E+02
     24.895  0.4093E-01  0.3371E+02
     25.193  0.0000E+00  0.3452E+02
     25.491  0.5391E-04  0.3501E+02
     25.789  0.5475E-02  0.3548E+02
     26.087  0.3256E-08  0.3591E+02
     26.385  0.0000E+00  0.3640E+02
     26.683  0.4093E-01  0.3687E+02
     26.981  0.9444E-01  0.3756E+02
     27.279  0.8186E-01  0.3811E+02
     27.576  0.1271E-01  0.3858E+02
     27.874  0.6913E-02  0.3905E+02
     28.172  0.8186E-01  0.3957E+02
     28.470  0.4093E+00  0.4027E+02
     28.768  0.0000E+00  0.4079E+02
     29.066  0.4093E-01  0.4122E+02
     29.364  0.1229E+00  0.4167E+02
     29.662  0.4230E-04  0.4212E+02
     29.960  0.0000E+00  0.4246E+02
     30.258  0.4092E-01  0.4285E+02
     30.556  0.4093E-01  0.4352E+02
     30.854  0.0000E+00  0.4417E+02
     31.152  0.4093E-01  0.4480E+02
     31.450  0.0000E+00  0.4527E+02
     31.748  0.5276E-09  0.4577E+02
     32.045  0.0000E+00  0.4629E+02
     32.343  0.0000E+00  0.4659E+02
     32.641  0.0000E+00  0.4700E+02
     32.939  0.4093E-01  0.4729E+02
     33.237  0.8717E-01  0.4766E+02
     33.535  0.0000E+00  0.4794E+02
     33.833  0.4457E-01  0.4823E+02
     34.131  0.4097E-01  0.4861E+02
     34.429  0.3094E-04  0.4929E+02
     34.727  0.4093E-01  0.5074E+02
     35.025  0.8615E-01  0.5135E+02
     35.323  0.0000E+00  0.5174E+02
     35.621  0.3798E-01  0.5206E+02
     35.919  0.0000E+00  0.5251E+02
     36.217  0.0000E+00  0.5279E+02
     36.514  0.7462E-01  0.5330E+02
     36.812  0.3390E-04  0.5372E+02
     37.110  0.1787E-05  0.5394E+02
     37.408  0.0000E+00  0.5440E+02
     37.706  0.0000E+00  0.5473E+02
     38.004  0.8085E-01  0.5509E+02
     38.302  0.4097E-01  0.5551E+02
     38.600  0.4093E-01  0.5590E+02
     38.898  0.8186E-01  0.5634E+02
     39.196  0.6843E-01  0.5679E+02
     39.494  0.8020E-01  0.5751E+02
     39.792  0.1228E+00  0.5856E+02
     40.090  0.1636E+00  0.5916E+02
     40.388  0.8186E-01  0.5991E+02
     40.686  0.4126E-01  0.6055E+02
     40.984  0.1793E+00  0.6132E+02
     41.281  0.2689E-06  0.6204E+02
     41.579  0.4093E-01  0.6262E+02
     41.877  0.0000E+00  0.6294E+02
     42.175  0.1354E+00  0.6341E+02
     42.473  0.8235E-01  0.6402E+02
     42.771  0.3394E-01  0.6455E+02
     43.069  0.8008E-01  0.6498E+02
     43.367  0.6142E-04  0.6561E+02
     43.665  0.1019E+00  0.6644E+02
     43.963  0.4218E-01  0.6733E+02
     44.261  0.1179E+00  0.6784E+02
     44.559  0.8186E-01  0.6856E+02
     44.857  0.5654E-01  0.6959E+02
     45.155  0.1630E+00  0.7017E+02
     45.453  0.9493E-01  0.7094E+02
     45.750  0.4093E-01  0.7171E+02
     46.048  0.0000E+00  0.7272E+02
     46.346  0.8185E-01  0.7315E+02
     46.644  0.0000E+00  0.7344E+02
     46.942  0.1955E-02  0.7388E+02
     47.240  0.2955E-08  0.7478E+02
     47.538  0.4093E-01  0.7559E+02
     47.836  0.4942E-01  0.7628E+02
     48.134  0.2571E-02  0.7698E+02
     48.432  0.4093E-01  0.7744E+02
     48.730  0.1596E+00  0.7801E+02
     49.028  0.8186E-01  0.7895E+02
     49.326  0.8179E-01  0.7979E+02
     49.624  0.1455E-02  0.8016E+02
     49.922  0.0000E+00  0.8089E+02
     50.219  0.4093E-01  0.8213E+02
     50.517  0.0000E+00  0.8282E+02
     50.815  0.0000E+00  0.8338E+02
     51.113  0.4093E-01  0.8391E+02
     51.411  0.7936E-01  0.8438E+02
     51.709  0.7472E-01  0.8505E+02
     52.007  0.0000E+00  0.8549E+02
     52.305  0.7169E-01  0.8602E+02
     52.603  0.0000E+00  0.8666E+02
     52.901  0.4093E-01  0.8702E+02
     53.199  0.1039E+00  0.8754E+02
     53.497  0.1637E+00  0.8817E+02
     53.795  0.6583E-01  0.8903E+02
     54.093  0.0000E+00  0.9004E+02
     54.391  0.4710E-01  0.9072E+02
     54.689  0.8186E-01  0.9138E+02
     54.986  0.0000E+00  0.9188E+02
     55.284  0.0000E+00  0.9238E+02
     55.582  0.8168E-01  0.9306E+02
     55.880  0.4093E-01  0.9348E+02
     56.178  0.4093E-01  0.9396E+02
     56.476  0.0000E+00  0.9433E+02
     56.774  0.1228E+00  0.9498E+02
     57.072  0.0000E+00  0.9568E+02
     57.370  0.0000E+00  0.9617E+02
     57.668  0.3978E-01  0.9665E+02
     57.966  0.3890E-01  0.9726E+02
     58.264  0.0000E+00  0.9790E+02
     58.562  0.1365E-12  0.9867E+02
     58.860  0.2336E-03  0.9933E+02
     59.158  0.5333E-01  0.9993E+02
     59.455  0.1228E+00  0.1008E+03
     59.753  0.1176E+00  0.1016E+03
     60.051  0.4856E-01  0.1021E+03
     60.349  0.8562E-01  0.1027E+03
     60.647  0.4093E-01  0.1034E+03
     60.945  0.4093E-01  0.1041E+03
     61.243  0.8129E-01  0.1049E+03
     61.541  0.8186E-01  0.1056E+03
     61.839  0.4093E-01  0.1064E+03
     62.137  0.2638E-10  0.1073E+03
     62.435  0.4101E-06  0.1085E+03
     62.733  0.8115E-01  0.1094E+03
     63.031  0.8172E-01  0.1103E+03
     63.329  0.8186E-01  0.1109E+03
     63.627  0.2431E-09  0.1113E+03
     63.924  0.5026E-01  0.1118E+03
     64.222  0.1501E-02  0.1124E+03
     64.520  0.1373E+00  0.1129E+03
     64.818  0.3309E-09  0.1136E+03
     65.116  0.7286E-01  0.1146E+03
     65.414  0.1613E-15  0.1154E+03
     65.712  0.4093E-01  0.1160E+03
     66.010  0.4142E-01  0.1167E+03
     66.308  0.0000E+00  0.1174E+03
     66.606  0.4093E-01  0.1183E+03
     66.904  0.0000E+00  0.1188E+03
     67.202  0.7823E-01  0.1193E+03
     67.500  0.2047E+00  0.1198E+03
     67.798  0.8595E-03  0.1205E+03
     68.096  0.1109E-14  0.1211E+03
     68.394  0.4093E-01  0.1217E+03
     68.691  0.9154E-01  0.1228E+03
     68.989  0.8202E-01  0.1236E+03
     69.287  0.1390E-02  0.1243E+03
     69.585  0.3460E-01  0.1249E+03
     69.883  0.4093E-01  0.1256E+03
     70.181  0.0000E+00  0.1260E+03
     70.479  0.8186E-01  0.1264E+03
     70.777  0.0000E+00  0.1270E+03
     71.075  0.0000E+00  0.1271E+03
     71.373  0.2751E-09  0.1273E+03
     71.671  0.0000E+00  0.1274E+03
     71.969  0.0000E+00  0.1275E+03
     72.267  0.0000E+00  0.1275E+03
     72.565  0.0000E+00  0.1275E+03
     72.863  0.0000E+00  0.1275E+03
     73.160  0.2384E-03  0.1276E+03
     73.458  0.0000E+00  0.1276E+03
     73.756  0.0000E+00  0.1277E+03
     74.054  0.2068E-15  0.1277E+03
     74.352  0.0000E+00  0.1279E+03
     74.650  0.0000E+00  0.1279E+03
     74.948  0.0000E+00  0.1280E+03
     75.246  0.0000E+00  0.1280E+03
     75.544  0.0000E+00  0.1280E+03
     75.842  0.0000E+00  0.1280E+03
     76.140  0.0000E+00  0.1280E+03
     76.438  0.0000E+00  0.1280E+03
     76.736  0.0000E+00  0.1280E+03
     77.034  0.0000E+00  0.1280E+03
     77.332  0.0000E+00  0.1280E+03
     77.629  0.0000E+00  0.1280E+03
     77.927  0.0000E+00  0.1280E+03
     78.225  0.0000E+00  0.1280E+03
     78.523  0.0000E+00  0.1280E+03
     78.821  0.0000E+00  0.1280E+03
     79.119  0.0000E+00  0.1280E+03
     79.11915584    -10.26126661  301      5.67824206      1.00000000
    -10.261  0.0000E+00  0.0000E+00  0.0000E+00  0.0000E+00  0.0000E+00  0.0000E+00  0.0000E+00  0.0000E+00  0.0000E+00
     -9.963  0.0000E+00  0.0000E+00  0.0000E+00  0.0000E+00  0.0000E+00  0.0000E+00  0.0000E+00  0.0000E+00  0.0000E+00
     -9.665  0.0000E+00  0.0000E+00  0.0000E+00  0.0000E+00  0.0000E+00  0.0000E+00  0.0000E+00  0.0000E+00  0.0000E+00
     -9.367  0.0000E+00  0.0000E+00  0.0000E+00  0.0000E+00  0.0000E+00  0.0000E+00  0.0000E+00  0.0000E+00  0.0000E+00
     -9.070  0.0000E+00  0.0000E+00  0.0000E+00  0.0000E+00  0.0000E+00  0.0000E+00  0.0000E+00  0.0000E+00  0.0000E+00
     -8.772  0.0000E+00  0.0000E+00  0.0000E+00  0.0000E+00  0.0000E+00  0.0000E+00  0.0000E+00  0.0000E+00  0.0000E+00
     -8.474  0.0000E+00  0.0000E+00  0.0000E+00  0.0000E+00  0.0000E+00  0.0000E+00  0.0000E+00  0.0000E+00  0.0000E+00
     -8.176  0.0000E+00  0.0000E+00  0.0000E+00  0.0000E+00  0.0000E+00  0.0000E+00  0.0000E+00  0.0000E+00  0.0000E+00
     -7.878  0.0000E+00  0.0000E+00  0.0000E+00  0.0000E+00  0.0000E+00  0.0000E+00  0.0000E+00  0.0000E+00  0.0000E+00
     -7.580  0.0000E+00  0.0000E+00  0.0000E+00  0.0000E+00  0.0000E+00  0.0000E+00  0.0000E+00  0.0000E+00  0.0000E+00
     -7.282  0.0000E+00  0.0000E+00  0.0000E+00  0.0000E+00  0.0000E+00  0.0000E+00  0.0000E+00  0.0000E+00  0.0000E+00
     -6.984  0.0000E+00  0.0000E+00  0.0000E+00  0.0000E+00  0.0000E+00  0.0000E+00  0.0000E+00  0.0000E+00  0.0000E+00
     -6.686  0.0000E+00  0.0000E+00  0.0000E+00  0.0000E+00  0.0000E+00  0.0000E+00  0.0000E+00  0.0000E+00  0.0000E+00
     -6.388  0.0000E+00  0.0000E+00  0.0000E+00  0.0000E+00  0.0000E+00  0.0000E+00  0.0000E+00  0.0000E+00  0.0000E+00
     -6.090  0.0000E+00  0.0000E+00  0.0000E+00  0.0000E+00  0.0000E+00  0.0000E+00  0.0000E+00  0.0000E+00  0.0000E+00
     -5.792  0.0000E+00  0.0000E+00  0.0000E+00  0.0000E+00  0.0000E+00  0.0000E+00  0.0000E+00  0.0000E+00  0.0000E+00
     -5.494  0.0000E+00  0.0000E+00  0.0000E+00  0.0000E+00  0.0000E+00  0.0000E+00  0.0000E+00  0.0000E+00  0.0000E+00
     -5.196  0.0000E+00  0.0000E+00  0.0000E+00  0.0000E+00  0.0000E+00  0.0000E+00  0.0000E+00  0.0000E+00  0.0000E+00
     -4.898  0.0000E+00  0.0000E+00  0.0000E+00  0.0000E+00  0.0000E+00  0.0000E+00  0.0000E+00  0.0000E+00  0.0000E+00
     -4.601  0.0000E+00  0.0000E+00  0.0000E+00  0.0000E+00  0.0000E+00  0.0000E+00  0.0000E+00  0.0000E+00  0.0000E+00
     -4.303  0.8311E-02  0.1353E-03  0.2896E-03  0.4060E-03  0.0000E+00  0.0000E+00  0.0000E+00  0.0000E+00  0.0000E+00
     -4.005  0.0000E+00  0.0000E+00  0.0000E+00  0.0000E+00  0.0000E+00  0.0000E+00  0.0000E+00  0.0000E+00  0.0000E+00
     -3.707  0.0000E+00  0.0000E+00  0.0000E+00  0.0000E+00  0.0000E+00  0.0000E+00  0.0000E+00  0.0000E+00  0.0000E+00
     -3.409  0.0000E+00  0.0000E+00  0.0000E+00  0.0000E+00  0.0000E+00  0.0000E+00  0.0000E+00  0.0000E+00  0.0000E+00
     -3.111  0.1729E-01  0.3123E-03  0.9175E-03  0.8479E-03  0.0000E+00  0.0000E+00  0.0000E+00  0.0000E+00  0.0000E+00
     -2.813  0.0000E+00  0.0000E+00  0.0000E+00  0.0000E+00  0.0000E+00  0.0000E+00  0.0000E+00  0.0000E+00  0.0000E+00
     -2.515  0.8028E-02  0.3078E-03  0.4949E-03  0.8005E-03  0.0000E+00  0.0000E+00  0.0000E+00  0.0000E+00  0.0000E+00
     -2.217  0.8270E-02  0.3090E-03  0.4971E-03  0.7845E-03  0.0000E+00  0.0000E+00  0.0000E+00  0.0000E+00  0.0000E+00
     -1.919  0.7755E-02  0.3092E-03  0.7002E-03  0.9276E-03  0.0000E+00  0.0000E+00  0.0000E+00  0.0000E+00  0.0000E+00
     -1.621  0.7915E-02  0.3165E-03  0.6453E-03  0.1026E-02  0.0000E+00  0.0000E+00  0.0000E+00  0.0000E+00  0.0000E+00
     -1.323  0.7797E-02  0.3574E-03  0.6791E-03  0.1110E-02  0.0000E+00  0.0000E+00  0.0000E+00  0.0000E+00  0.0000E+00
     -1.025  0.0000E+00  0.0000E+00  0.0000E+00  0.0000E+00  0.0000E+00  0.0000E+00  0.0000E+00  0.0000E+00  0.0000E+00
     -0.727  0.0000E+00  0.0000E+00  0.0000E+00  0.0000E+00  0.0000E+00  0.0000E+00  0.0000E+00  0.0000E+00  0.0000E+00
     -0.429  0.0000E+00  0.0000E+00  0.0000E+00  0.0000E+00  0.0000E+00  0.0000E+00  0.0000E+00  0.0000E+00  0.0000E+00
     -0.131  0.0000E+00  0.0000E+00  0.0000E+00  0.0000E+00  0.0000E+00  0.0000E+00  0.0000E+00  0.0000E+00  0.0000E+00
      0.166  0.4676E-13  0.4360E-15  0.3321E-13  0.1308E-14  0.0000E+00  0.0000E+00  0.0000E+00  0.0000E+00  0.0000E+00
      0.464  0.0000E+00  0.0000E+00  0.0000E+00  0.0000E+00  0.0000E+00  0.0000E+00  0.0000E+00  0.0000E+00  0.0000E+00
      0.762  0.6985E-02  0.6551E-03  0.6388E-03  0.1965E-02  0.0000E+00  0.0000E+00  0.0000E+00  0.0000E+00  0.0000E+00
      1.060  0.0000E+00  0.0000E+00  0.0000E+00  0.0000E+00  0.0000E+00  0.0000E+00  0.0000E+00  0.0000E+00  0.0000E+00
      1.358  0.0000E+00  0.0000E+00  0.0000E+00  0.0000E+00  0.0000E+00  0.0000E+00  0.0000E+00  0.0000E+00  0.0000E+00
      1.656  0.1493E-11  0.2546E-11  0.1024E-10  0.7637E-11  0.0000E+00  0.0000E+00  0.0000E+00  0.0000E+00  0.0000E+00
      1.954  0.1092E-03  0.8924E-03  0.4145E-02  0.1620E-02  0.0000E+00  0.0000E+00  0.0000E+00  0.0000E+00  0.0000E+00
      2.252  0.0000E+00  0.0000E+00  0.0000E+00  0.0000E+00  0.0000E+00  0.0000E+00  0.0000E+00  0.0000E+00  0.0000E+00
      2.550  0.7270E-05  0.1528E-04  0.5509E-04  0.4584E-04  0.0000E+00  0.0000E+00  0.0000E+00  0.0000E+00  0.0000E+00
      2.848  0.1916E-04  0.6268E-02  0.6879E-02  0.4399E-02  0.0000E+00  0.0000E+00  0.0000E+00  0.0000E+00  0.0000E+00
      3.146  0.2903E-15  0.4873E-05  0.3898E-04  0.1462E-04  0.0000E+00  0.0000E+00  0.0000E+00  0.0000E+00  0.0000E+00
      3.444  0.2574E-07  0.9258E-05  0.6246E-04  0.2545E-04  0.0000E+00  0.0000E+00  0.0000E+00  0.0000E+00  0.0000E+00
      3.742  0.0000E+00  0.0000E+00  0.0000E+00  0.0000E+00  0.0000E+00  0.0000E+00  0.0000E+00  0.0000E+00  0.0000E+00
      4.040  0.0000E+00  0.0000E+00  0.0000E+00  0.0000E+00  0.0000E+00  0.0000E+00  0.0000E+00  0.0000E+00  0.0000E+00
      4.338  0.2525E-02  0.1289E-03  0.6068E-02  0.3866E-03  0.0000E+00  0.0000E+00  0.0000E+00  0.0000E+00  0.0000E+00
      4.635  0.0000E+00  0.0000E+00  0.0000E+00  0.0000E+00  0.0000E+00  0.0000E+00  0.0000E+00  0.0000E+00  0.0000E+00
      4.933  0.8568E-03  0.7835E-04  0.3507E-02  0.2351E-03  0.0000E+00  0.0000E+00  0.0000E+00  0.0000E+00  0.0000E+00
      5.231  0.0000E+00  0.0000E+00  0.0000E+00  0.0000E+00  0.0000E+00  0.0000E+00  0.0000E+00  0.0000E+00  0.0000E+00
      5.529  0.2056E-05  0.1419E-02  0.2979E-02  0.4256E-02  0.0000E+00  0.0000E+00  0.0000E+00  0.0000E+00  0.0000E+00
      5.827  0.0000E+00  0.0000E+00  0.0000E+00  0.0000E+00  0.0000E+00  0.0000E+00  0.0000E+00  0.0000E+00  0.0000E+00
      6.125  0.0000E+00  0.0000E+00  0.0000E+00  0.0000E+00  0.0000E+00  0.0000E+00  0.0000E+00  0.0000E+00  0.0000E+00
      6.423  0.4135E-02  0.5893E-03  0.9000E-03  0.1529E-02  0.0000E+00  0.0000E+00  0.0000E+00  0.0000E+00  0.0000E+00
      6.721  0.0000E+00  0.0000E+00  0.0000E+00  0.0000E+00  0.0000E+00  0.0000E+00  0.0000E+00  0.0000E+00  0.0000E+00
      7.019  0.1343E-09  0.2327E-10  0.1854E-10  0.6965E-10  0.0000E+00  0.0000E+00  0.0000E+00  0.0000E+00  0.0000E+00
      7.317  0.0000E+00  0.0000E+00  0.0000E+00  0.0000E+00  0.0000E+00  0.0000E+00  0.0000E+00  0.0000E+00  0.0000E+00
      7.615  0.1964E-12  0.2239E-13  0.5511E-13  0.6718E-13  0.0000E+00  0.0000E+00  0.0000E+00  0.0000E+00  0.0000E+00
      7.913  0.0000E+00  0.0000E+00  0.0000E+00  0.0000E+00  0.0000E+00  0.0000E+00  0.0000E+00  0.0000E+00  0.0000E+00
      8.211  0.1960E-03  0.3870E-03  0.4528E-02  0.1160E-02  0.0000E+00  0.0000E+00  0.0000E+00  0.0000E+00  0.0000E+00
      8.509  0.1348E-03  0.2554E-02  0.7414E-04  0.8677E-03  0.0000E+00  0.0000E+00  0.0000E+00  0.0000E+00  0.0000E+00
      8.807  0.1436E-01  0.3769E-04  0.7539E-04  0.1131E-03  0.0000E+00  0.0000E+00  0.0000E+00  0.0000E+00  0.0000E+00
      9.104  0.4741E-15  0.7358E-15  0.1030E-15  0.4215E-15  0.0000E+00  0.0000E+00  0.0000E+00  0.0000E+00  0.0000E+00
      9.402  0.5082E-03  0.3998E-02  0.8414E-04  0.1372E-02  0.0000E+00  0.0000E+00  0.0000E+00  0.0000E+00  0.0000E+00
      9.700  0.0000E+00  0.0000E+00  0.0000E+00  0.0000E+00  0.0000E+00  0.0000E+00  0.0000E+00  0.0000E+00  0.0000E+00
      9.998  0.0000E+00  0.0000E+00  0.0000E+00  0.0000E+00  0.0000E+00  0.0000E+00  0.0000E+00  0.0000E+00  0.0000E+00
     10.296  0.6801E-18  0.4464E-08  0.7546E-19  0.1488E-08  0.0000E+00  0.0000E+00  0.0000E+00  0.0000E+00  0.0000E+00
     10.594  0.4749E-12  0.3403E-02  0.6988E-13  0.1134E-02  0.0000E+00  0.0000E+00  0.0000E+00  0.0000E+00  0.0000E+00
     10.892  0.0000E+00  0.0000E+00  0.0000E+00  0.0000E+00  0.0000E+00  0.0000E+00  0.0000E+00  0.0000E+00  0.0000E+00
     11.190  0.0000E+00  0.0000E+00  0.0000E+00  0.0000E+00  0.0000E+00  0.0000E+00  0.0000E+00  0.0000E+00  0.0000E+00
     11.488  0.3612E-04  0.1536E-04  0.1194E-03  0.7931E-04  0.0000E+00  0.0000E+00  0.0000E+00  0.0000E+00  0.0000E+00
     11.786  0.0000E+00  0.0000E+00  0.0000E+00  0.0000E+00  0.0000E+00  0.0000E+00  0.0000E+00  0.0000E+00  0.0000E+00
     12.084  0.8388E-12  0.4367E-02  0.3206E-11  0.1456E-02  0.0000E+00  0.0000E+00  0.0000E+00  0.0000E+00  0.0000E+00
     12.382  0.0000E+00  0.0000E+00  0.0000E+00  0.0000E+00  0.0000E+00  0.0000E+00  0.0000E+00  0.0000E+00  0.0000E+00
     12.680  0.1103E-12  0.3851E-04  0.2169E-14  0.1284E-04  0.0000E+00  0.0000E+00  0.0000E+00  0.0000E+00  0.0000E+00
     12.978  0.2001E-02  0.3227E-02  0.2207E-02  0.2549E-02  0.0000E+00  0.0000E+00  0.0000E+00  0.0000E+00  0.0000E+00
     13.276  0.9644E-03  0.1017E-03  0.3412E-03  0.3051E-03  0.0000E+00  0.0000E+00  0.0000E+00  0.0000E+00  0.0000E+00
     13.574  0.4013E-02  0.5064E-05  0.1232E-03  0.1519E-04  0.0000E+00  0.0000E+00  0.0000E+00  0.0000E+00  0.0000E+00
     13.871  0.8362E-04  0.1495E-03  0.6949E-03  0.2846E-03  0.0000E+00  0.0000E+00  0.0000E+00  0.0000E+00  0.0000E+00
     14.169  0.0000E+00  0.0000E+00  0.0000E+00  0.0000E+00  0.0000E+00  0.0000E+00  0.0000E+00  0.0000E+00  0.0000E+00
     14.467  0.0000E+00  0.0000E+00  0.0000E+00  0.0000E+00  0.0000E+00  0.0000E+00  0.0000E+00  0.0000E+00  0.0000E+00
     14.765  0.4390E-02  0.5200E-02  0.1390E-02  0.6863E-02  0.0000E+00  0.0000E+00  0.0000E+00  0.0000E+00  0.0000E+00
     15.063  0.3629E-03  0.6591E-02  0.1669E-03  0.1007E-02  0.0000E+00  0.0000E+00  0.0000E+00  0.0000E+00  0.0000E+00
     15.361  0.5483E-10  0.7505E-10  0.2230E-10  0.4363E-09  0.0000E+00  0.0000E+00  0.0000E+00  0.0000E+00  0.0000E+00
     15.659  0.3643E-18  0.2826E-17  0.4389E-18  0.2264E-17  0.0000E+00  0.0000E+00  0.0000E+00  0.0000E+00  0.0000E+00
     15.957  0.0000E+00  0.0000E+00  0.0000E+00  0.0000E+00  0.0000E+00  0.0000E+00  0.0000E+00  0.0000E+00  0.0000E+00
     16.255  0.5840E-03  0.8817E-03  0.8398E-03  0.3976E-02  0.0000E+00  0.0000E+00  0.0000E+00  0.0000E+00  0.0000E+00
     16.553  0.0000E+00  0.0000E+00  0.0000E+00  0.0000E+00  0.0000E+00  0.0000E+00  0.0000E+00  0.0000E+00  0.0000E+00
     16.851  0.1317E-03  0.1234E-02  0.1334E-02  0.1986E-02  0.0000E+00  0.0000E+00  0.0000E+00  0.0000E+00  0.0000E+00
     17.149  0.2403E-03  0.1412E-02  0.1364E-02  0.1315E-02  0.0000E+00  0.0000E+00  0.0000E+00  0.0000E+00  0.0000E+00
     17.447  0.5524E-03  0.1123E-04  0.6567E-04  0.3370E-04  0.0000E+00  0.0000E+00  0.0000E+00  0.0000E+00  0.0000E+00
     17.745  0.2417E-12  0.1125E-03  0.8997E-03  0.3374E-03  0.0000E+00  0.0000E+00  0.0000E+00  0.0000E+00  0.0000E+00
     18.043  0.2862E-02  0.1438E-02  0.2219E-02  0.4315E-02  0.0000E+00  0.0000E+00  0.0000E+00  0.0000E+00  0.0000E+00
     18.340  0.8419E-18  0.6282E-18  0.1111E-17  0.1687E-17  0.0000E+00  0.0000E+00  0.0000E+00  0.0000E+00  0.0000E+00
     18.638  0.3026E-06  0.2190E-06  0.1355E-05  0.6570E-06  0.0000E+00  0.0000E+00  0.0000E+00  0.0000E+00  0.0000E+00
     18.936  0.1601E-02  0.2427E-02  0.2678E-02  0.3145E-02  0.0000E+00  0.0000E+00  0.0000E+00  0.0000E+00  0.0000E+00
     19.234  0.0000E+00  0.0000E+00  0.0000E+00  0.0000E+00  0.0000E+00  0.0000E+00  0.0000E+00  0.0000E+00  0.0000E+00
     19.532  0.6792E-15  0.3485E-04  0.3970E-16  0.1162E-04  0.0000E+00  0.0000E+00  0.0000E+00  0.0000E+00  0.0000E+00
     19.830  0.1138E-09  0.2766E-11  0.2868E-09  0.8299E-11  0.0000E+00  0.0000E+00  0.0000E+00  0.0000E+00  0.0000E+00
     20.128  0.2571E-03  0.2038E-02  0.5003E-03  0.1830E-03  0.0000E+00  0.0000E+00  0.0000E+00  0.0000E+00  0.0000E+00
     20.426  0.4822E-04  0.7496E-03  0.3751E-02  0.3050E-02  0.0000E+00  0.0000E+00  0.0000E+00  0.0000E+00  0.0000E+00
     20.724  0.9358E-03  0.4841E-03  0.4516E-02  0.2278E-02  0.0000E+00  0.0000E+00  0.0000E+00  0.0000E+00  0.0000E+00
     21.022  0.1461E-02  0.3010E-05  0.7280E-04  0.9032E-05  0.0000E+00  0.0000E+00  0.0000E+00  0.0000E+00  0.0000E+00
     21.320  0.1215E-12  0.3162E-03  0.9948E-14  0.1054E-03  0.0000E+00  0.0000E+00  0.0000E+00  0.0000E+00  0.0000E+00
     21.618  0.7549E-04  0.1565E-02  0.4221E-02  0.7313E-03  0.0000E+00  0.0000E+00  0.0000E+00  0.0000E+00  0.0000E+00
     21.916  0.1822E-02  0.3851E-04  0.4757E-03  0.4558E-03  0.0000E+00  0.0000E+00  0.0000E+00  0.0000E+00  0.0000E+00
     22.214  0.5676E-03  0.2030E-02  0.2655E-02  0.1784E-02  0.0000E+00  0.0000E+00  0.0000E+00  0.0000E+00  0.0000E+00
     22.512  0.2406E-03  0.2425E-03  0.1001E-02  0.1624E-02  0.0000E+00  0.0000E+00  0.0000E+00  0.0000E+00  0.0000E+00
     22.809  0.1192E-05  0.2590E-04  0.5166E-04  0.7744E-04  0.0000E+00  0.0000E+00  0.0000E+00  0.0000E+00  0.0000E+00
     23.107  0.1835E-03  0.2946E-04  0.2226E-05  0.1077E-04  0.0000E+00  0.0000E+00  0.0000E+00  0.0000E+00  0.0000E+00
     23.405  0.0000E+00  0.0000E+00  0.0000E+00  0.0000E+00  0.0000E+00  0.0000E+00  0.0000E+00  0.0000E+00  0.0000E+00
     23.703  0.4215E-04  0.1628E-02  0.8365E-04  0.6195E-03  0.0000E+00  0.0000E+00  0.0000E+00  0.0000E+00  0.0000E+00
     24.001  0.1229E-02  0.1570E-02  0.1631E-05  0.6179E-03  0.0000E+00  0.0000E+00  0.0000E+00  0.0000E+00  0.0000E+00
     24.299  0.2079E-03  0.2175E-04  0.4351E-04  0.6526E-04  0.0000E+00  0.0000E+00  0.0000E+00  0.0000E+00  0.0000E+00
     24.597  0.1173E-04  0.9681E-04  0.2422E-03  0.1167E-03  0.0000E+00  0.0000E+00  0.0000E+00  0.0000E+00  0.0000E+00
     24.895  0.2058E-03  0.1332E-02  0.1712E-04  0.2146E-03  0.0000E+00  0.0000E+00  0.0000E+00  0.0000E+00  0.0000E+00
     25.193  0.0000E+00  0.0000E+00  0.0000E+00  0.0000E+00  0.0000E+00  0.0000E+00  0.0000E+00  0.0000E+00  0.0000E+00
     25.491  0.6354E-06  0.1440E-06  0.1415E-05  0.6643E-06  0.0000E+00  0.0000E+00  0.0000E+00  0.0000E+00  0.0000E+00
     25.789  0.4236E-14  0.1305E-05  0.6356E-14  0.4349E-06  0.0000E+00  0.0000E+00  0.0000E+00  0.0000E+00  0.0000E+00
     26.087  0.2210E-19  0.5832E-10  0.4844E-10  0.3656E-10  0.0000E+00  0.0000E+00  0.0000E+00  0.0000E+00  0.0000E+00
     26.385  0.0000E+00  0.0000E+00  0.0000E+00  0.0000E+00  0.0000E+00  0.0000E+00  0.0000E+00  0.0000E+00  0.0000E+00
     26.683  0.1867E-02  0.1693E-03  0.2436E-03  0.5080E-03  0.0000E+00  0.0000E+00  0.0000E+00  0.0000E+00  0.0000E+00
     26.981  0.4123E-03  0.2085E-02  0.1879E-02  0.1407E-02  0.0000E+00  0.0000E+00  0.0000E+00  0.0000E+00  0.0000E+00
     27.279  0.4202E-03  0.5088E-03  0.2586E-02  0.2117E-02  0.0000E+00  0.0000E+00  0.0000E+00  0.0000E+00  0.0000E+00
     27.576  0.9391E-04  0.6384E-04  0.8744E-04  0.9166E-04  0.0000E+00  0.0000E+00  0.0000E+00  0.0000E+00  0.0000E+00
     27.874  0.2924E-03  0.1557E-04  0.1974E-03  0.8491E-04  0.0000E+00  0.0000E+00  0.0000E+00  0.0000E+00  0.0000E+00
     28.172  0.1619E-02  0.1181E-03  0.3008E-03  0.6856E-03  0.0000E+00  0.0000E+00  0.0000E+00  0.0000E+00  0.0000E+00
     28.470  0.3455E-03  0.1276E-02  0.2962E-02  0.1339E-02  0.0000E+00  0.0000E+00  0.0000E+00  0.0000E+00  0.0000E+00
     28.768  0.0000E+00  0.0000E+00  0.0000E+00  0.0000E+00  0.0000E+00  0.0000E+00  0.0000E+00  0.0000E+00  0.0000E+00
     29.066  0.9196E-03  0.8433E-03  0.2753E-03  0.2210E-03  0.0000E+00  0.0000E+00  0.0000E+00  0.0000E+00  0.0000E+00
     29.364  0.9619E-03  0.8149E-03  0.1790E-02  0.7233E-03  0.0000E+00  0.0000E+00  0.0000E+00  0.0000E+00  0.0000E+00
     29.662  0.5612E-06  0.9296E-06  0.1146E-05  0.4430E-06  0.0000E+00  0.0000E+00  0.0000E+00  0.0000E+00  0.0000E+00
     29.960  0.0000E+00  0.0000E+00  0.0000E+00  0.0000E+00  0.0000E+00  0.0000E+00  0.0000E+00  0.0000E+00  0.0000E+00
     30.258  0.4639E-04  0.5656E-04  0.6700E-04  0.1697E-03  0.0000E+00  0.0000E+00  0.0000E+00  0.0000E+00  0.0000E+00
     30.556  0.1350E-10  0.1521E-02  0.1205E-11  0.5069E-03  0.0000E+00  0.0000E+00  0.0000E+00  0.0000E+00  0.0000E+00
     30.854  0.0000E+00  0.0000E+00  0.0000E+00  0.0000E+00  0.0000E+00  0.0000E+00  0.0000E+00  0.0000E+00  0.0000E+00
     31.152  0.2341E-04  0.5423E-04  0.6328E-05  0.3274E-04  0.0000E+00  0.0000E+00  0.0000E+00  0.0000E+00  0.0000E+00
     31.450  0.0000E+00  0.0000E+00  0.0000E+00  0.0000E+00  0.0000E+00  0.0000E+00  0.0000E+00  0.0000E+00  0.0000E+00
     31.748  0.1968E-19  0.5933E-10  0.3236E-20  0.1978E-10  0.0000E+00  0.0000E+00  0.0000E+00  0.0000E+00  0.0000E+00
     32.045  0.0000E+00  0.0000E+00  0.0000E+00  0.0000E+00  0.0000E+00  0.0000E+00  0.0000E+00  0.0000E+00  0.0000E+00
     32.343  0.0000E+00  0.0000E+00  0.0000E+00  0.0000E+00  0.0000E+00  0.0000E+00  0.0000E+00  0.0000E+00  0.0000E+00
     32.641  0.0000E+00  0.0000E+00  0.0000E+00  0.0000E+00  0.0000E+00  0.0000E+00  0.0000E+00  0.0000E+00  0.0000E+00
     32.939  0.1504E-02  0.1513E-03  0.5228E-03  0.4540E-03  0.0000E+00  0.0000E+00  0.0000E+00  0.0000E+00  0.0000E+00
     33.237  0.2814E-02  0.1704E-03  0.4317E-03  0.5849E-03  0.0000E+00  0.0000E+00  0.0000E+00  0.0000E+00  0.0000E+00
     33.535  0.0000E+00  0.0000E+00  0.0000E+00  0.0000E+00  0.0000E+00  0.0000E+00  0.0000E+00  0.0000E+00  0.0000E+00
     33.833  0.2508E-03  0.4581E-03  0.2594E-03  0.3525E-03  0.0000E+00  0.0000E+00  0.0000E+00  0.0000E+00  0.0000E+00
     34.131  0.2393E-04  0.9718E-04  0.1939E-03  0.2906E-03  0.0000E+00  0.0000E+00  0.0000E+00  0.0000E+00  0.0000E+00
     34.429  0.2614E-07  0.8786E-07  0.1174E-06  0.2636E-06  0.0000E+00  0.0000E+00  0.0000E+00  0.0000E+00  0.0000E+00
     34.727  0.1942E-05  0.2824E-02  0.9136E-07  0.9380E-03  0.0000E+00  0.0000E+00  0.0000E+00  0.0000E+00  0.0000E+00
     35.025  0.6380E-04  0.4124E-02  0.1058E-02  0.1283E-02  0.0000E+00  0.0000E+00  0.0000E+00  0.0000E+00  0.0000E+00
     35.323  0.0000E+00  0.0000E+00  0.0000E+00  0.0000E+00  0.0000E+00  0.0000E+00  0.0000E+00  0.0000E+00  0.0000E+00
     35.621  0.1020E-03  0.1780E-03  0.1217E-02  0.5341E-03  0.0000E+00  0.0000E+00  0.0000E+00  0.0000E+00  0.0000E+00
     35.919  0.0000E+00  0.0000E+00  0.0000E+00  0.0000E+00  0.0000E+00  0.0000E+00  0.0000E+00  0.0000E+00  0.0000E+00
     36.217  0.0000E+00  0.0000E+00  0.0000E+00  0.0000E+00  0.0000E+00  0.0000E+00  0.0000E+00  0.0000E+00  0.0000E+00