    2    2    1    1
  0.2045223E+02  0.3867484E-09  0.3867485E-09  0.3867483E-09  0.5000000E-15
  1.000000000000000E-004
  CAR 
 unknown system                          
      8    164     64
 
  0.0000000E+00  0.0000000E+00  0.0000000E+00  0.6097561E-02
    1       -6.198520   1.000000
    2        5.614210   1.000000
    3        5.614215   1.000000
    4        5.614216   1.000000
    5        8.170273   0.000000
    6        8.170274   0.000000
    7        8.170278   0.000000
    8        8.743569   0.000000
    9       13.322263   0.000000
   10       13.322274   0.000000
   11       13.488325   0.000000
   12       16.793896   0.000000
   13       16.793913   0.000000
   14       16.793914   0.000000
   15       20.882374   0.000000
   16       28.463305   0.000000
   17       28.463308   0.000000
   18       28.463328   0.000000
   19       29.543915   0.000000
   20       29.543929   0.000000
   21       30.988872   0.000000
   22       30.988881   0.000000
   23       30.988888   0.000000
   24       34.519715   0.000000
   25       34.519727   0.000000
   26       34.519731   0.000000
   27       40.100934   0.000000
   28       40.100939   0.000000
   29       40.100948   0.000000
   30       43.402151   0.000000
   31       43.876337   0.000000
   32       43.876360   0.000000
   33       45.769641   0.000000
   34       45.769658   0.000000
   35       47.261817   0.000000
   36       47.261818   0.000000
   37       47.261829   0.000000
   38       49.011480   0.000000
   39       49.011513   0.000000
   40       49.011517   0.000000
   41       49.468715   0.000000
   42       50.078033   0.000000
   43       50.078056   0.000000
   44       50.078061   0.000000
   45       50.079932   0.000000
   46       50.079933   0.000000
   47       50.079956   0.000000
   48       51.500454   0.000000
   49       51.500456   0.000000
   50       51.500477   0.000000
   51       55.348551   0.000000
   52       56.519775   0.000000
   53       56.519778   0.000000
   54       56.519793   0.000000
   55       56.803470   0.000000
   56       56.803474   0.000000
   57       56.803488   0.000000
   58       61.605419   0.000000
   59       62.460232   0.000000
   60       71.245062   0.000000
   61       71.245114   0.000000
   62       74.255904   0.000000
   63       74.255972   0.000000
   64       74.255981   0.000000
 
  0.2173913E-01  0.0000000E+00  0.2173913E-01  0.6097561E-02
    1       -6.190398   1.000000
    2        5.555475   1.000000
    3        5.579605   1.000000
    4        5.579611   1.000000
    5        8.150051   0.000000
    6        8.214902   0.000000
    7        8.214906   0.000000
    8        8.801140   0.000000
    9       13.255567   0.000000
   10       13.331288   0.000000
   11       13.524684   0.000000
   12       16.808110   0.000000
   13       16.808127   0.000000
   14       16.840678   0.000000
   15       20.941810   0.000000
   16       28.328979   0.000000
   17       28.329002   0.000000
   18       28.473662   0.000000
   19       29.437334   0.000000
   20       29.464432   0.000000
   21       31.044563   0.000000
   22       31.079017   0.000000
   23       31.079029   0.000000
   24       34.582067   0.000000
   25       34.582081   0.000000
   26       34.631404   0.000000
   27       40.041786   0.000000
   28       40.041797   0.000000
   29       40.042386   0.000000
   30       43.445346   0.000000
   31       43.730958   0.000000
   32       43.854849   0.000000
   33       45.548118   0.000000
   34       45.757554   0.000000
   35       47.253338   0.000000
   36       47.288883   0.000000
   37       47.288890   0.000000
   38       48.791737   0.000000
   39       48.791770   0.000000
   40       49.037812   0.000000
   41       49.725105   0.000000
   42       49.735789   0.000000
   43       49.735813   0.000000
   44       50.119057   0.000000
   45       50.189125   0.000000
   46       50.263194   0.000000
   47       50.263215   0.000000
   48       51.543314   0.000000
   49       51.938283   0.000000
   50       51.938301   0.000000
   51       55.129660   0.000000
   52       55.915105   0.000000
   53       55.915116   0.000000
   54       56.751412   0.000000
   55       56.763745   0.000000
   56       57.454765   0.000000
   57       57.454774   0.000000
   58       61.698966   0.000000
   59       62.514772   0.000000
   60       70.794249   0.000000
   61       71.251013   0.000000
   62       74.213433   0.000000
   63       74.213456   0.000000
   64       74.421512   0.000000
 
  0.4347826E-01  0.0000000E+00  0.4347826E-01  0.6097561E-02
    1       -6.166025   1.000000
    2        5.391323   1.000000
    3        5.482612   1.000000
    4        5.482618   1.000000
    5        8.091268   0.000000
    6        8.341930   0.000000
    7        8.341934   0.000000
    8        8.960139   0.000000
    9       13.071982   0.000000
   10       13.358355   0.000000
   11       13.631883   0.000000
   12       16.850724   0.000000
   13       16.850741   0.000000
   14       16.967747   0.000000
   15       21.118237   0.000000
   16       27.980489   0.000000
   17       27.980511   0.000000
   18       28.504898   0.000000
   19       29.143083   0.000000
   20       29.255977   0.000000
   21       31.181926   0.000000
   22       31.294653   0.000000
   23       31.294665   0.000000
   24       34.769487   0.000000
   25       34.769502   0.000000
   26       34.940414   0.000000
   27       39.867321   0.000000
   28       39.867331   0.000000
   29       39.873441   0.000000
   30       43.328421   0.000000
   31       43.554657   0.000000
   32       43.792082   0.000000
   33       45.032916   0.000000
   34       45.723629   0.000000
   35       47.223591   0.000000
   36       47.360199   0.000000
   37       47.360206   0.000000
   38       48.284410   0.000000
   39       48.284439   0.000000
   40       49.106777   0.000000
   41       49.215631   0.000000
   42       49.215656   0.000000
   43       50.234696   0.000000
   44       50.367763   0.000000
   45       50.489236   0.000000
   46       50.643962   0.000000
   47       50.643984   0.000000
   48       51.670073   0.000000
   49       52.768432   0.000000
   50       52.768447   0.000000
   51       54.706972   0.000000
   52       55.236958   0.000000
   53       55.236968   0.000000
   54       56.610028   0.000000
   55       57.267584   0.000000
   56       58.273844   0.000000
   57       58.273854   0.000000
   58       61.965987   0.000000
   59       62.675950   0.000000
   60       69.764590   0.000000
   61       71.268386   0.000000
   62       74.059781   0.000000
   63       74.059822   0.000000
   64       74.672675   0.000000
 
  0.6521739E-01  0.0000000E+00  0.6521739E-01  0.6097561E-02
    1       -6.125425   1.000000
    2        5.148396   1.000000
    3        5.339040   1.000000
    4        5.339045   1.000000
    5        7.998887   0.000000
    6        8.535447   0.000000
    7        8.535451   0.000000
    8        9.188229   0.000000
    9       12.810810   0.000000
   10       13.403461   0.000000
   11       13.804777   0.000000
   12       16.921639   0.000000
   13       16.921656   0.000000
   14       17.146747   0.000000
   15       21.405733   0.000000
   16       27.508550   0.000000
   17       27.508572   0.000000
   18       28.557587   0.000000
   19       28.715574   0.000000
   20       28.967618   0.000000
   21       31.351900   0.000000
   22       31.546595   0.000000
   23       31.546606   0.000000
   24       35.079962   0.000000
   25       35.079978   0.000000
   26       35.390778   0.000000
   27       39.585669   0.000000
   28       39.585678   0.000000
   29       39.608664   0.000000
   30       42.739731   0.000000
   31       43.624168   0.000000
   32       43.692728   0.000000
   33       44.505080   0.000000
   34       45.674612   0.000000
   35       47.166887   0.000000
   36       47.414661   0.000000
   37       47.414667   0.000000
   38       47.664752   0.000000
   39       47.664780   0.000000
   40       48.816112   0.000000
   41       48.816139   0.000000
   42       49.214184   0.000000
   43       50.422130   0.000000
   44       50.898062   0.000000
   45       51.087546   0.000000
   46       51.087569   0.000000
   47       51.204973   0.000000
   48       51.875836   0.000000
   49       53.700947   0.000000
   50       53.700959   0.000000
   51       54.267846   0.000000
   52       54.607416   0.000000
   53       54.607427   0.000000
   54       56.415228   0.000000
   55       57.864758   0.000000
   56       59.142386   0.000000
   57       59.142395   0.000000
   58       62.374353   0.000000
   59       62.936911   0.000000
   60       68.507359   0.000000
   61       71.296685   0.000000
   62       73.724219   0.000000
   63       73.724254   0.000000
   64       74.836817   0.000000
 
  0.8695652E-01  0.0000000E+00  0.8695652E-01  0.6097561E-02
    1       -6.068650   1.000000
    2        4.852722   1.000000
    3        5.165593   1.000000
    4        5.165597   1.000000
    5        7.879765   0.000000
    6        8.778555   0.000000
    7        8.778560   0.000000
    8        9.446880   0.000000
    9       12.518792   0.000000
   10       13.466599   0.000000
   11       14.036191   0.000000
   12       17.020649   0.000000
   13       17.020665   0.000000
   14       17.352398   0.000000
   15       21.794078   0.000000
   16       26.973393   0.000000
   17       26.973414   0.000000
   18       28.204780   0.000000
   19       28.631624   0.000000
   20       28.632624   0.000000
   21       31.522137   0.000000
   22       31.782795   0.000000
   23       31.782805   0.000000
   24       35.504111   0.000000
   25       35.504129   0.000000
   26       35.929170   0.000000
   27       39.208344   0.000000
   28       39.208352   0.000000
   29       39.261091   0.000000
   30       42.030118   0.000000
   31       43.320880   0.000000
   32       43.563335   0.000000
   33       44.384329   0.000000
   34       45.620246   0.000000
   35       46.890870   0.000000
   36       46.890880   0.000000
   37       47.082764   0.000000
   38       47.526935   0.000000
   39       47.526953   0.000000
   40       48.581215   0.000000
   41       48.581245   0.000000
   42       49.357380   0.000000
   43       50.674688   0.000000
   44       51.308792   0.000000
   45       51.557966   0.000000
   46       51.557990   0.000000
   47       52.126534   0.000000
   48       52.153718   0.000000
   49       53.898197   0.000000
   50       54.031414   0.000000
   51       54.031425   0.000000
   52       54.682008   0.000000
   53       54.682020   0.000000
   54       56.210816   0.000000
   55       58.519332   0.000000
   56       60.056621   0.000000
   57       60.056629   0.000000
   58       62.888155   0.000000
   59       63.287636   0.000000
   60       67.167423   0.000000
   61       71.333297   0.000000
   62       73.162380   0.000000
   63       73.162446   0.000000
   64       74.479362   0.000000
 
  0.1086957E+00  0.0000000E+00  0.1086957E+00  0.6097561E-02
    1       -5.995751   1.000000
    2        4.523282   1.000000
    3        4.975557   1.000000
    4        4.975561   1.000000
    5        7.741311   0.000000
    6        9.057755   0.000000
    7        9.057760   0.000000
    8        9.691614   0.000000
    9       12.247836   0.000000
   10       13.547759   0.000000
   11       14.318261   0.000000
   12       17.147390   0.000000
   13       17.147406   0.000000
   14       17.570170   0.000000
   15       22.269435   0.000000
   16       26.407520   0.000000
   17       26.407541   0.000000
   18       27.645576   0.000000
   19       28.265686   0.000000
   20       28.731809   0.000000
   21       31.674848   0.000000
   22       31.986513   0.000000
   23       31.986522   0.000000
   24       36.024257   0.000000
   25       36.024276   0.000000
   26       36.516021   0.000000
   27       38.748903   0.000000
   28       38.748909   0.000000
   29       38.838345   0.000000
   30       41.244940   0.000000
   31       42.747005   0.000000
   32       43.411104   0.000000
   33       44.605246   0.000000
   34       45.573044   0.000000
   35       46.198112   0.000000
   36       46.198120   0.000000
   37       46.974444   0.000000
   38       47.433203   0.000000
   39       47.433221   0.000000
   40       48.549788   0.000000
   41       48.549819   0.000000
   42       49.532089   0.000000
   43       50.985117   0.000000
   44       51.571700   0.000000
   45       52.032788   0.000000
   46       52.032814   0.000000
   47       52.496265   0.000000
   48       53.062631   0.000000
   49       53.539908   0.000000
   50       53.539918   0.000000
   51       53.715855   0.000000
   52       55.681223   0.000000
   53       55.681234   0.000000
   54       56.049731   0.000000
   55       59.222663   0.000000
   56       61.015086   0.000000
   57       61.015094   0.000000
   58       63.468525   0.000000
   59       63.716936   0.000000
   60       65.814822   0.000000
   61       71.376869   0.000000
   62       72.426341   0.000000
   63       72.426373   0.000000
   64       73.584481   0.000000
 
  0.1304348E+00  0.0000000E+00  0.1304348E+00  0.6097561E-02
    1       -5.906807   1.000000
    2        4.172408   1.000000
    3        4.778292   1.000000
    4        4.778296   1.000000
    5        7.590533   0.000000
    6        9.363398   0.000000
    7        9.363404   0.000000
    8        9.862927   0.000000
    9       12.063345   0.000000
   10       13.646928   0.000000
   11       14.643331   0.000000
   12       17.301244   0.000000
   13       17.301260   0.000000
   14       17.794864   0.000000
   15       22.815881   0.000000
   16       25.828991   0.000000
   17       25.829012   0.000000
   18       27.059824   0.000000
   19       27.880038   0.000000
   20       28.857412   0.000000
   21       31.799153   0.000000
   22       32.158531   0.000000
   23       32.158540   0.000000
   24       36.616126   0.000000
   25       36.616145   0.000000
   26       37.122686   0.000000
   27       38.224178   0.000000
   28       38.224183   0.000000
   29       38.344908   0.000000
   30       40.413281   0.000000
   31       42.172751   0.000000
   32       43.242878   0.000000
   33       44.913887   0.000000
   34       45.528633   0.000000
   35       45.528640   0.000000
   36       45.546505   0.000000
   37       46.845939   0.000000
   38       47.227604   0.000000
   39       47.227621   0.000000
   40       48.676235   0.000000
   41       48.676264   0.000000
   42       49.733857   0.000000
   43       51.346201   0.000000
   44       51.539820   0.000000
   45       52.429854   0.000000
   46       52.429880   0.000000
   47       52.896403   0.000000
   48       53.215081   0.000000
   49       53.215086   0.000000
   50       53.845959   0.000000
   51       53.916180   0.000000
   52       56.026598   0.000000
   53       56.694935   0.000000
   54       56.694945   0.000000
   55       59.969954   0.000000
   56       62.016062   0.000000
   57       62.016069   0.000000
   58       63.916148   0.000000
   59       64.213351   0.000000
   60       64.659764   0.000000
   61       71.422314   0.000000
   62       71.596092   0.000000
   63       71.596109   0.000000
   64       72.648586   0.000000
 
  0.1521739E+00  0.0000000E+00  0.1521739E+00  0.6097561E-02
    1       -5.801920   1.000000
    2        3.807869   1.000000
    3        4.580140   1.000000
    4        4.580144   1.000000
    5        7.433531   0.000000
    6        9.688857   0.000000
    7        9.688863   0.000000
    8        9.893714   0.000000
    9       12.036875   0.000000
   10       13.764089   0.000000
   11       15.004388   0.000000
   12       17.481174   0.000000
   13       17.481189   0.000000
   14       18.026760   0.000000
   15       23.416866   0.000000
   16       25.248963   0.000000
   17       25.248983   0.000000
   18       26.461177   0.000000
   19       27.481610   0.000000
   20       29.012914   0.000000
   21       31.886703   0.000000
   22       32.304531   0.000000
   23       32.304540   0.000000
   24       37.213583   0.000000
   25       37.213597   0.000000
   26       37.694900   0.000000
   27       37.694905   0.000000
   28       37.726504   0.000000
   29       37.787344   0.000000
   30       39.554110   0.000000
   31       41.663893   0.000000
   32       43.064880   0.000000
   33       44.895611   0.000000
   34       44.895617   0.000000
   35       45.248067   0.000000
   36       45.555693   0.000000
   37       46.701223   0.000000
   38       46.976868   0.000000
   39       46.976883   0.000000
   40       48.860955   0.000000
   41       48.860982   0.000000
   42       49.959211   0.000000
   43       51.254230   0.000000
   44       51.751827   0.000000
   45       52.444470   0.000000
   46       52.444486   0.000000
   47       53.347975   0.000000
   48       53.376987   0.000000
   49       53.376999   0.000000
   50       54.235325   0.000000
   51       54.485978   0.000000
   52       56.340465   0.000000
   53       57.715156   0.000000
   54       57.715166   0.000000
   55       60.754183   0.000000
   56       62.958584   0.000000
   57       63.056590   0.000000
   58       63.056597   0.000000
   59       64.766868   0.000000
   60       64.982013   0.000000
   61       70.721675   0.000000
   62       70.721695   0.000000
   63       71.462775   0.000000
   64       71.687535   0.000000
 
  0.1739130E+00  0.0000000E+00  0.1739130E+00  0.6097561E-02
    1       -5.681201   1.000000
    2        3.434521   1.000000
    3        4.385387   1.000000
    4        4.385391   1.000000
    5        7.275373   0.000000
    6        9.764088   0.000000
    7       10.029532   0.000000
    8       10.029539   0.000000
    9       12.191458   0.000000
   10       13.899220   0.000000
   11       15.395113   0.000000
   12       17.685471   0.000000
   13       17.685485   0.000000
   14       18.268531   0.000000
   15       24.055834   0.000000
   16       24.675381   0.000000
   17       24.675401   0.000000
   18       25.858263   0.000000
   19       27.075883   0.000000
   20       29.203329   0.000000
   21       31.929714   0.000000
   22       32.428561   0.000000
   23       32.428569   0.000000
   24       36.951425   0.000000
   25       36.951431   0.000000
   26       37.178037   0.000000
   27       38.024864   0.000000
   28       38.024886   0.000000
   29       38.307494   0.000000
   30       38.679632   0.000000
   31       41.237199   0.000000
   32       42.882110   0.000000
   33       44.302303   0.000000
   34       44.302309   0.000000
   35       45.583170   0.000000
   36       45.616960   0.000000
   37       46.543305   0.000000
   38       46.718524   0.000000
   39       46.718537   0.000000
   40       49.034439   0.000000
   41       49.034463   0.000000
   42       50.207328   0.000000
   43       50.849239   0.000000
   44       52.196306   0.000000
   45       52.253434   0.000000
   46       52.253446   0.000000
   47       53.845871   0.000000
   48       53.870832   0.000000
   49       53.870851   0.000000
   50       54.669848   0.000000
   51       54.744593   0.000000
   52       57.083071   0.000000
   53       58.736305   0.000000
   54       58.736315   0.000000
   55       61.563891   0.000000
   56       61.684252   0.000000
   57       64.131600   0.000000
   58       64.131607   0.000000
   59       65.368800   0.000000
   60       65.707488   0.000000
   61       69.830666   0.000000
   62       69.830688   0.000000
   63       70.710001   0.000000
   64       71.487239   0.000000
 
  0.1956522E+00  0.0000000E+00  0.1956522E+00  0.6097561E-02
    1       -5.544802   1.000000
    2        3.055504   1.000000
    3        4.196980   1.000000
    4        4.196983   1.000000
    5        7.120165   0.000000
    6        9.522119   0.000000
    7       10.382174   0.000000
    8       10.382181   0.000000
    9       12.481096   0.000000
   10       14.052298   0.000000
   11       15.809644   0.000000
   12       17.911277   0.000000
   13       17.911290   0.000000
   14       18.523524   0.000000
   15       24.115130   0.000000
   16       24.115149   0.000000
   17       24.715977   0.000000
   18       25.256718   0.000000
   19       26.667740   0.000000
   20       29.435770   0.000000
   21       31.919545   0.000000
   22       32.529600   0.000000
   23       32.529608   0.000000
   24       36.312845   0.000000
   25       36.312851   0.000000
   26       36.535715   0.000000
   27       37.798453   0.000000
   28       38.734707   0.000000
   29       38.734729   0.000000
   30       38.846468   0.000000
   31       40.893817   0.000000
   32       42.698582   0.000000
   33       43.748769   0.000000
   34       43.748775   0.000000
   35       45.747358   0.000000
   36       45.900899   0.000000
   37       46.374252   0.000000
   38       46.466950   0.000000
   39       46.466961   0.000000
   40       49.149303   0.000000
   41       49.149324   0.000000
   42       50.401227   0.000000
   43       50.480673   0.000000
   44       52.137861   0.000000
   45       52.137872   0.000000
   46       52.675050   0.000000
   47       54.385967   0.000000
   48       54.441287   0.000000
   49       54.441309   0.000000
   50       54.651373   0.000000
   51       55.296548   0.000000
   52       58.030629   0.000000
   53       59.752158   0.000000
   54       59.752168   0.000000
   55       60.483709   0.000000
   56       62.381325   0.000000
   57       65.231039   0.000000
   58       65.231045   0.000000
   59       66.011628   0.000000
   60       66.485790   0.000000
   61       68.941380   0.000000
   62       68.941402   0.000000
   63       69.720942   0.000000
   64       71.477612   0.000000
 
  0.2173913E+00  0.0000000E+00  0.2173913E+00  0.6097561E-02
    1       -5.392871   1.000000
    2        2.672946   1.000000
    3        4.017024   1.000000
    4        4.017027   1.000000
    5        6.971211   0.000000
    6        9.224955   0.000000
    7       10.744442   0.000000
    8       10.744450   0.000000
    9       12.849913   0.000000
   10       14.223298   0.000000
   11       16.242270   0.000000
   12       18.153786   0.000000
   13       18.153798   0.000000
   14       18.794980   0.000000
   15       23.575751   0.000000
   16       23.575770   0.000000
   17       24.660502   0.000000
   18       25.379527   0.000000
   19       26.262077   0.000000
   20       29.719982   0.000000
   21       31.845936   0.000000
   22       32.597892   0.000000
   23       32.597900   0.000000
   24       35.660532   0.000000
   25       35.660538   0.000000
   26       35.883292   0.000000
   27       36.917073   0.000000
   28       39.326294   0.000000
   29       39.473605   0.000000
   30       39.473627   0.000000
   31       40.628633   0.000000
   32       42.517827   0.000000
   33       43.234677   0.000000
   34       43.234684   0.000000
   35       45.963304   0.000000
   36       46.184663   0.000000
   37       46.195227   0.000000
   38       46.228102   0.000000
   39       46.228113   0.000000
   40       49.178914   0.000000
   41       49.178932   0.000000
   42       49.944044   0.000000
   43       50.785878   0.000000
   44       52.155681   0.000000
   45       52.155691   0.000000
   46       53.184311   0.000000
   47       54.527799   0.000000
   48       54.965043   0.000000
   49       55.046257   0.000000
   50       55.046280   0.000000
   51       55.859038   0.000000
   52       58.775986   0.000000
   53       59.689486   0.000000
   54       60.754646   0.000000
   55       60.754657   0.000000
   56       63.181862   0.000000
   57       66.333352   0.000000
   58       66.333356   0.000000
   59       66.688919   0.000000
   60       67.290930   0.000000
   61       68.073948   0.000000
   62       68.073969   0.000000
   63       68.727220   0.000000
   64       71.407715   0.000000
 
  0.2391304E+00  0.0000000E+00  0.2391304E+00  0.6097561E-02
    1       -5.225596   1.000000
    2        2.288366   1.000000
    3        3.847019   1.000000
    4        3.847022   1.000000
    5        6.831158   0.000000
    6        8.908265   0.000000
    7       11.114620   0.000000
    8       11.114629   0.000000
    9       13.262705   0.000000
   10       14.412185   0.000000
   11       16.686902   0.000000
   12       18.404660   0.000000
   13       18.404670   0.000000
   14       19.085764   0.000000
   15       23.067390   0.000000
   16       23.067408   0.000000
   17       24.072296   0.000000
   18       25.864270   0.000000
   19       26.027325   0.000000
   20       30.068037   0.000000
   21       31.696496   0.000000
   22       32.605957   0.000000
   23       32.605964   0.000000
   24       35.043001   0.000000
   25       35.043008   0.000000
   26       35.245928   0.000000
   27       36.040891   0.000000
   28       39.733736   0.000000
   29       40.217684   0.000000
   30       40.217706   0.000000
   31       40.434662   0.000000
   32       42.342282   0.000000
   33       42.762638   0.000000
   34       42.762645   0.000000
   35       46.004554   0.000000
   36       46.004565   0.000000
   37       46.006241   0.000000
   38       46.277369   0.000000
   39       46.420042   0.000000
   40       49.126883   0.000000
   41       49.126897   0.000000
   42       49.495206   0.000000
   43       51.130282   0.000000
   44       52.304624   0.000000
   45       52.304636   0.000000
   46       53.720552   0.000000
   47       54.262243   0.000000
   48       55.580459   0.000000
   49       55.676662   0.000000
   50       55.676686   0.000000
   51       56.417041   0.000000
   52       58.244110   0.000000
   53       60.417292   0.000000
   54       61.728024   0.000000
   55       61.728036   0.000000
   56       63.931087   0.000000
   57       67.150925   0.000000
   58       67.150948   0.000000
   59       67.391584   0.000000
   60       67.494730   0.000000
   61       67.494738   0.000000
   62       67.730978   0.000000
   63       68.109762   0.000000
   64       71.239932   0.000000
 
  0.2608696E+00  0.0000000E+00  0.2608696E+00  0.6097561E-02
    1       -5.043193   1.000000
    2        1.902931   1.000000
    3        3.688090   1.000000
    4        3.688093   1.000000
    5        6.702138   0.000000
    6        8.591185   0.000000
    7       11.491439   0.000000
    8       11.491449   0.000000
    9       13.700241   0.000000
   10       14.618924   0.000000
   11       17.136493   0.000000
   12       18.649039   0.000000
   13       18.649047   0.000000
   14       19.398294   0.000000
   15       22.606067   0.000000
   16       22.606083   0.000000
   17       23.494078   0.000000
   18       25.480710   0.000000
   19       26.639806   0.000000
   20       30.492560   0.000000
   21       31.457604   0.000000
   22       32.494258   0.000000
   23       32.494264   0.000000
   24       34.530292   0.000000
   25       34.530300   0.000000
   26       34.648313   0.000000
   27       35.175450   0.000000
   28       40.062691   0.000000
   29       40.305068   0.000000
   30       40.934924   0.000000
   31       40.934944   0.000000
   32       42.173934   0.000000
   33       42.351950   0.000000
   34       42.351957   0.000000
   35       45.797655   0.000000
   36       45.797665   0.000000
   37       45.806272   0.000000
   38       46.596673   0.000000
   39       46.695226   0.000000
   40       49.021935   0.000000
   41       49.021946   0.000000
   42       49.066022   0.000000
   43       51.517704   0.000000
   44       52.553539   0.000000
   45       52.553554   0.000000
   46       53.765418   0.000000
   47       54.280616   0.000000
   48       56.230141   0.000000
   49       56.329301   0.000000
   50       56.329325   0.000000
   51       56.961984   0.000000
   52       57.683268   0.000000
   53       61.509432   0.000000
   54       62.633382   0.000000
   55       62.633395   0.000000
   56       64.583299   0.000000
   57       66.460859   0.000000
   58       66.460880   0.000000
   59       66.735165   0.000000
   60       68.100889   0.000000
   61       68.356671   0.000000
   62       68.356680   0.000000
   63       68.928152   0.000000
   64       70.934782   0.000000
 
  0.2826087E+00  0.0000000E+00  0.2826087E+00  0.6097561E-02
    1       -4.845897   1.000000
    2        1.517633   1.000000
    3        3.541089   1.000000
    4        3.541092   1.000000
    5        6.585898   0.000000
    6        8.284090   0.000000
    7       11.873963   0.000000
    8       11.873973   0.000000
    9       14.151510   0.000000
   10       14.843475   0.000000
   11       17.582192   0.000000
   12       18.860386   0.000000
   13       18.860391   0.000000
   14       19.734555   0.000000
   15       22.219007   0.000000
   16       22.219020   0.000000
   17       22.927326   0.000000
   18       25.119575   0.000000
   19       27.200361   0.000000
   20       31.000521   0.000000
   21       31.118855   0.000000
   22       32.184323   0.000000
   23       32.184328   0.000000
   24       34.110825   0.000000
   25       34.208212   0.000000
   26       34.208221   0.000000
   27       34.329149   0.000000
   28       40.233353   0.000000
   29       40.315536   0.000000
   30       41.441472   0.000000
   31       41.441483   0.000000
   32       42.014303   0.000000
   33       42.174932   0.000000
   34       42.174943   0.000000
   35       45.593474   0.000000
   36       45.608122   0.000000
   37       45.608131   0.000000
   38       46.710055   0.000000
   39       47.214035   0.000000
   40       48.665391   0.000000
   41       48.898442   0.000000
   42       48.898451   0.000000
   43       51.919126   0.000000
   44       52.864399   0.000000