unknown system                          
   1.00000000000000     
     3.867484    0.000000    0.000000
     1.933742    3.349340    0.000000
     0.000000   -2.232891    3.157788
   Si
     2
Direct
  0.000000  0.000000  0.000000
  0.750000  0.500000  0.750000
 
   60   60   60
 -.10754829389E+03 -.10674993052E+03 -.10418437985E+03 -.99990719706E+02 -.94135133273E+02
 -.86859273348E+02 -.78150819363E+02 -.68456018620E+02 -.57933651912E+02 -.47157386300E+02
 -.36346605377E+02 -.26104453318E+02 -.16475535507E+02 -.86674915482E+01 -.34718535365E+01
 -.12344451683E+01 -.30655134120E+00 0.15499653376E+01 0.29542879440E+01 0.40677357622E+01
 0.48655260604E+01 0.54685841425E+01 0.58719575988E+01 0.61576178012E+01 0.63215279378E+01
 0.64260914966E+01 0.64678399822E+01 0.64856730707E+01 0.64827832655E+01 0.64828239006E+01
 0.64775262208E+01 0.64808257848E+01 0.64803742792E+01 0.64833040455E+01 0.64632537812E+01
 0.64201624439E+01 0.63176122658E+01 0.61527384006E+01 0.58751428452E+01 0.54751072114E+01
 0.48644337265E+01 0.40631901210E+01 0.29557766878E+01 0.15529479122E+01 -.31098610670E+00
 -.12314607215E+01 -.34732565576E+01 -.86660932001E+01 -.16475857831E+02 -.26103466442E+02
 -.36346632005E+02 -.47157069542E+02 -.57933773773E+02 -.68455799998E+02 -.78150796527E+02
 -.86858796171E+02 -.94134943538E+02 -.99990560312E+02 -.10418487346E+03 -.10674970376E+03
 -.10676569592E+03 -.10505280630E+03 -.10166371100E+03 -.96668500278E+02 -.90100941223E+02
 -.82111167102E+02 -.72936675842E+02 -.62835974372E+02 -.52171248628E+02 -.41387203269E+02
 -.30875408553E+02 -.20961513311E+02 -.12091694961E+02 -.56637063034E+01 -.19557481163E+01
 -.85938966960E+00 0.63147543886E+00 0.24052302959E+01 0.36206414990E+01 0.46409107681E+01
 0.53400752209E+01 0.58991617878E+01 0.62598192013E+01 0.65318572493E+01 0.66907252927E+01
 0.67999592605E+01 0.68516958666E+01 0.68854931267E+01 0.68944442665E+01 0.68979280561E+01
 0.68989122715E+01 0.68942231555E+01 0.68881258845E+01 0.68536502622E+01 0.68056059393E+01
 0.66934969369E+01 0.65379488267E+01 0.62629548667E+01 0.58969122040E+01 0.53344689812E+01
 0.46407795020E+01 0.36259180957E+01 0.24032158081E+01 0.62921038479E+00 -.85516470867E+00
 -.19624159257E+01 -.56561920044E+01 -.12092415633E+02 -.20959794535E+02 -.30880018277E+02
 -.41385788154E+02 -.52170515776E+02 -.62838649054E+02 -.72924200118E+02 -.82128946898E+02
 -.90093225301E+02 -.96673014856E+02 -.10167852855E+03 -.10503831289E+03 -.10674949317E+03
 -.10421196871E+03 -.10167547936E+03 -.97541422738E+02 -.91729230899E+02 -.84511947639E+02
 -.75971698819E+02 -.66432581257E+02 -.56120718255E+02 -.45508280058E+02 -.34960935728E+02
 -.24931993995E+02 -.15523316991E+02 -.80779282797E+01 -.31835137649E+01 -.12214441006E+01
 -.18362427735E+00 0.17417565997E+01 0.31457644807E+01 0.43147912639E+01 0.51518940389E+01
 0.58251110094E+01 0.62859716904E+01 0.66445853807E+01 0.68722937236E+01 0.70411515177E+01
 0.71362311711E+01 0.72049854716E+01 0.72322187548E+01 0.72562172560E+01 0.72559416120E+01
 0.72572785995E+01 0.72317107119E+01 0.72030854694E+01 0.71328148756E+01 0.70383500398E+01
 0.68677278906E+01 0.66401689691E+01 0.62824874849E+01 0.58267134603E+01 0.51577133292E+01
 0.43147043146E+01 0.31406990649E+01 0.17437982088E+01 -.18243386420E+00 -.12204095779E+01
 -.31842369957E+01 -.80849790289E+01 -.15525748471E+02 -.24928293982E+02 -.34959429016E+02
 -.45508897131E+02 -.56119755284E+02 -.66442724342E+02 -.75964531626E+02 -.84505490016E+02
 -.91730603504E+02 -.97522054280E+02 -.10167540921E+03 -.10424216341E+03 -.10504268375E+03
 -.99999851982E+02 -.96666276185E+02 -.91733168555E+02 -.85323197904E+02 -.77549447919E+02
 -.68615252359E+02 -.58865921035E+02 -.48578276403E+02 -.38227387752E+02 -.28186064826E+02
 -.18665772398E+02 -.10465843771E+02 -.47177203841E+01 -.16779696101E+01 -.73368253178E+00
 0.99411824156E+00 0.26705551988E+01 0.39165595569E+01 0.49218223890E+01 0.56713852932E+01
 0.62525340557E+01 0.66730544869E+01 0.69858169169E+01 0.71996147221E+01 0.73526723182E+01
 0.74470819802E+01 0.75109494091E+01 0.75445759614E+01 0.75616160045E+01 0.75593631692E+01
 0.75445708782E+01 0.75108012361E+01 0.74503597180E+01 0.73538492856E+01 0.72038337255E+01
 0.69889761183E+01 0.66775434730E+01 0.62560983745E+01 0.56698900494E+01 0.49161057057E+01
 0.39173351983E+01 0.26743577772E+01 0.99410080038E+00 -.74071103200E+00 -.16715382266E+01
 -.47179047837E+01 -.10454405927E+02 -.18669426141E+02 -.28186120094E+02 -.38230335765E+02
 -.48579972646E+02 -.58852490172E+02 -.68627535711E+02 -.77542494937E+02 -.85335887406E+02
 -.91747909554E+02 -.96670231734E+02 -.99983927642E+02 -.10163882936E+03 -.10165173435E+03
 -.94130436187E+02 -.90103052042E+02 -.84540112660E+02 -.77559820770E+02 -.69349524137E+02
 -.60238558503E+02 -.50450849791E+02 -.40488017923E+02 -.30597720268E+02 -.21181001587E+02
 -.12610630287E+02 -.62310179458E+01 -.23486586327E+01 -.10555553560E+01 0.27478883352E+00
 0.21903211712E+01 0.34910671203E+01 0.46621691356E+01 0.54638384561E+01 0.61737481778E+01
 0.66332302153E+01 0.70463575063E+01 0.72844071718E+01 0.75149231264E+01 0.76166522037E+01
 0.77404364494E+01 0.77653385980E+01 0.78262997599E+01 0.78057170671E+01 0.78276416287E+01
 0.77658298514E+01 0.77391499075E+01 0.76155314499E+01 0.75119881005E+01 0.72819056440E+01
 0.70426114066E+01 0.66295209564E+01 0.61695575393E+01 0.54663792000E+01 0.46656046619E+01
 0.34926024845E+01 0.21835794592E+01 0.28191892693E+00 -.10574487641E+01 -.23522438623E+01
 -.62372905661E+01 -.12614609454E+02 -.21182809688E+02 -.30594592489E+02 -.40482764035E+02
 -.50464669695E+02 -.60226690265E+02 -.69354472901E+02 -.77559546703E+02 -.84511517745E+02
 -.90103443161E+02 -.94142265117E+02 -.96609832468E+02 -.97440713605E+02 -.96611826905E+02
 -.86848692907E+02 -.82112601393E+02 -.75979868860E+02 -.68614221514E+02 -.60251490527E+02
 -.51091873928E+02 -.41649646826E+02 -.32110058619E+02 -.22932964424E+02 -.14322596389E+02
 -.75579617194E+01 -.31192484998E+01 -.13009495350E+01 -.27428842937E+00 0.16838915580E+01
 0.31090243430E+01 0.43548710793E+01 0.52600452317E+01 0.60306677265E+01 0.65761239657E+01
 0.70329815393E+01 0.73428510970E+01 0.75974659013E+01 0.77587077584E+01 0.78897177790E+01
 0.79610856278E+01 0.80160956059E+01 0.80355766026E+01 0.80371558657E+01 0.80133756860E+01
 0.79630543538E+01 0.78879979592E+01 0.77626000512E+01 0.75979240539E+01 0.73468621687E+01
 0.70348899331E+01 0.65815751095E+01 0.60320652805E+01 0.52612068576E+01 0.43480715817E+01
 0.31120727480E+01 0.16816463523E+01 -.27126026751E+00 -.13029032547E+01 -.31082259019E+01
 -.75599889880E+01 -.14311929964E+02 -.22934064751E+02 -.32117762336E+02 -.41635818661E+02
 -.51109162749E+02 -.60240953596E+02 -.68618429097E+02 -.75996018287E+02 -.82125015439E+02
 -.86832315902E+02 -.90025646972E+02 -.91632038117E+02 -.91618437671E+02 -.90017621998E+02
 -.78125694879E+02 -.72926136177E+02 -.66422470020E+02 -.58875468514E+02 -.50455395363E+02
 -.41639195542E+02 -.32600444168E+02 -.23829137012E+02 -.15394051957E+02 -.85250666832E+01
 -.37886478247E+01 -.15207973273E+01 -.63831738385E+00 0.11975505935E+01 0.27723072593E+01
 0.40444436759E+01 0.50586274572E+01 0.58609639216E+01 0.64956599046E+01 0.69810408489E+01
 0.73618334849E+01 0.76379520903E+01 0.78544040627E+01 0.79973375213E+01 0.81096984056E+01
 0.81704690832E+01 0.82163051576E+01 0.82200077701E+01 0.82162912111E+01 0.81705795934E+01
 0.81108314891E+01 0.79960887227E+01 0.78530544263E+01 0.76355109352E+01 0.73603005103E+01
 0.69765127661E+01 0.64940918093E+01 0.58552888440E+01 0.50616669874E+01 0.40454344828E+01
 0.27789595299E+01 0.11894888069E+01 -.63694537509E+00 -.15274002314E+01 -.37904581238E+01
 -.85297951445E+01 -.15403748331E+02 -.23819895133E+02 -.32617064091E+02 -.41614610555E+02
 -.50466000134E+02 -.58875386197E+02 -.66401731971E+02 -.72926898593E+02 -.78130958109E+02
 -.82007076077E+02 -.84319408377E+02 -.85135342551E+02 -.84338981512E+02 -.82012749845E+02
 -.68463938259E+02 -.62835090867E+02 -.56115677710E+02 -.48578840180E+02 -.40481215516E+02
 -.32106205104E+02 -.23830685919E+02 -.15787232406E+02 -.90296482674E+01 -.42741687222E+01
 -.17074503615E+01 -.88663978351E+00 0.81245474655E+00 0.24754640021E+01 0.37822075896E+01
 0.48505301364E+01 0.57050265243E+01 0.63851621242E+01 0.69224899636E+01 0.73374222456E+01
 0.76599823132E+01 0.78997834535E+01 0.80817941506E+01 0.82077231113E+01 0.82992834282E+01
 0.83501870851E+01 0.83801704068E+01 0.83769340615E+01 0.83544763897E+01 0.82943860847E+01
 0.82112051594E+01 0.80789162026E+01 0.79050240226E+01 0.76581058785E+01 0.73434739984E+01
 0.69213567853E+01 0.63925043459E+01 0.57046823652E+01 0.48548975141E+01 0.37703558467E+01
 0.24802411306E+01 0.81476596649E+00 -.87840822323E+00 -.17098050399E+01 -.42672627006E+01
 -.90226317380E+01 -.15790704795E+02 -.23807881875E+02 -.32136894946E+02 -.40472687203E+02
 -.48579306339E+02 -.56134799452E+02 -.62836866910E+02 -.68445528265E+02 -.72807409303E+02
 -.75762340143E+02 -.77265102280E+02 -.77259694707E+02 -.75743474591E+02 -.72791044301E+02
 -.57937370720E+02 -.52163658019E+02 -.45511833782E+02 -.38236347813E+02 -.30604307441E+02
 -.22931708147E+02 -.15397080210E+02 -.90294192744E+01 -.44233286351E+01 -.18211432599E+01
 -.99243156479E+00 0.53996373025E+00 0.22620874846E+01 0.35502359482E+01 0.46822577781E+01
 0.55461845826E+01 0.62894318261E+01 0.68369612125E+01 0.73116053078E+01 0.76426664574E+01
 0.79354428344E+01 0.81196538023E+01 0.82916684979E+01 0.83792618078E+01 0.84704610752E+01
 0.84921616440E+01 0.85248351139E+01 0.84910207043E+01 0.84709472500E+01 0.83797563527E+01
 0.82920937939E+01 0.81187189345E+01 0.79342356902E+01 0.76402558816E+01 0.73108160962E+01
 0.68328626055E+01 0.62875754676E+01 0.55400487105E+01 0.46877677118E+01 0.35519742432E+01
 0.22611913800E+01 0.53055694785E+00 -.99537879436E+00 -.18190844900E+01 -.44391025109E+01
 -.90138808268E+01 -.15437122731E+02 -.22897477022E+02 -.30610936787E+02 -.38235077641E+02
 -.45488157368E+02 -.52165904978E+02 -.57953931282E+02 -.62687182001E+02 -.66138442188E+02
 -.68281669599E+02 -.68983811389E+02 -.68286798764E+02 -.66167305900E+02 -.62691055725E+02
 -.47143506914E+02 -.41384998007E+02 -.34959466365E+02 -.28188745963E+02 -.21174980951E+02
 -.14320428432E+02 -.85267360435E+01 -.42711066704E+01 -.18229218423E+01 -.10452311345E+01
 0.40255377148E+00 0.21022219578E+01 0.34016636633E+01 0.45386997951E+01 0.54350179786E+01
 0.61824870810E+01 0.67736338606E+01 0.72569087011E+01 0.76321544691E+01 0.79300729079E+01
 0.81572783948E+01 0.83297445950E+01 0.84566266477E+01 0.85428505412E+01 0.86009207916E+01
 0.86235847725E+01 0.86285523113E+01 0.85969858523E+01 0.85469082638E+01 0.84519676304E+01
 0.83334176738E+01 0.81540282898E+01 0.79358710382E+01 0.76291995953E+01 0.72629121203E+01
 0.67723460504E+01 0.61905599647E+01 0.54315825865E+01 0.45421025214E+01 0.33978289644E+01
 0.21081540503E+01 0.40998729071E+00 -.10468155130E+01 -.18092682806E+01 -.42865931733E+01
 -.84909362879E+01 -.14341072039E+02 -.21173616629E+02 -.28184626015E+02 -.34993108529E+02
 -.41382089277E+02 -.47125198784E+02 -.52003210121E+02 -.55814867354E+02 -.58442446998E+02
 -.59767355819E+02 -.59764313952E+02 -.58431781189E+02 -.55795276433E+02 -.51999581650E+02
 -.36350558913E+02 -.30867022175E+02 -.24931302198E+02 -.18669447880E+02 -.12609077385E+02
 -.75607198668E+01 -.37879864780E+01 -.17084161358E+01 -.99270391449E+00 0.40403194438E+00
 0.20661675307E+01 0.33249522411E+01 0.44600335702E+01 0.53383896472E+01 0.61098265146E+01
 0.67050925478E+01 0.72185201850E+01 0.75991374743E+01 0.79302260446E+01 0.81618518877E+01
 0.83664799122E+01 0.84942671521E+01 0.86116513823E+01 0.86667781230E+01 0.87207188800E+01
 0.87200252543E+01 0.87204351300E+01 0.86665693129E+01 0.86114448866E+01 0.84951889630E+01
 0.83666419160E+01 0.81607794442E+01 0.79292460495E+01 0.75975271672E+01 0.72171295005E+01
 0.67010894027E+01 0.61099228226E+01 0.53353652607E+01 0.44561653163E+01 0.33266482745E+01
 0.20577903697E+01 0.40669235404E+00 -.10134299398E+01 -.16839052115E+01 -.38289017711E+01
 -.75338671238E+01 -.12621450907E+02 -.18676142680E+02 -.24895683229E+02 -.30861574711E+02
 -.36370149311E+02 -.41211011101E+02 -.45176979516E+02 -.48125030465E+02 -.49920244365E+02
 -.50538044823E+02 -.49927026460E+02 -.48125008386E+02 -.45196656891E+02 -.41213947162E+02
 -.26102771650E+02 -.20957715212E+02 -.15533468013E+02 -.10462580133E+02 -.62315627023E+01
 -.31175454189E+01 -.15220141041E+01 -.88516033797E+00 0.53957756650E+00 0.21017117513E+01
 0.33236476386E+01 0.44149517233E+01 0.52988082241E+01 0.60557333399E+01 0.66690759227E+01
 0.71718861633E+01 0.75815637565E+01 0.79096834147E+01 0.81729295119E+01 0.83742124708E+01
 0.85338430121E+01 0.86463926385E+01 0.87323264027E+01 0.87799416021E+01 0.88103869118E+01
 0.88049393420E+01 0.87854030413E+01 0.87274716756E+01 0.86515989115E+01 0.85277305405E+01
 0.83796426425E+01 0.81682796911E+01 0.79160286491E+01 0.75780267210E+01 0.71787280139E+01
 0.66654241186E+01 0.60608110693E+01 0.53036357311E+01 0.44186872792E+01 0.33283618476E+01
 0.20950521214E+01 0.56547001184E+00 -.90990670344E+00 -.14836293914E+01 -.31432711680E+01
 -.62267569516E+01 -.10438595991E+02 -.15570498986E+02 -.20964171831E+02 -.26092709698E+02
 -.30700920362E+02 -.34631964593E+02 -.37733725196E+02 -.39880881219E+02 -.40984327792E+02
 -.40985857562E+02 -.39883462527E+02 -.37738477157E+02 -.34609480006E+02 -.30699643494E+02
 -.16470234068E+02 -.12092375759E+02 -.80752853576E+01 -.47163135336E+01 -.23492405187E+01
 -.13021274200E+01 -.63664349963E+00 0.81053122050E+00 0.22629632260E+01 0.34018783870E+01
 0.44616801002E+01 0.52977385943E+01 0.60484007975E+01 0.66343917573E+01 0.71529543466E+01
 0.75555155861E+01 0.79040861268E+01 0.81625225198E+01 0.83881069433E+01 0.85458618011E+01
 0.86827248155E+01 0.87671411831E+01 0.88387713000E+01 0.88678291170E+01 0.88867925731E+01
 0.88682833712E+01 0.88377571139E+01 0.87681355868E+01 0.86809394682E+01 0.85489926696E+01
 0.83849671393E+01 0.81658963912E+01 0.78978939450E+01 0.75595459625E+01 0.71466533756E+01
 0.66411562758E+01 0.60321364454E+01 0.53043870348E+01 0.44381707414E+01 0.34272291528E+01
 0.22238828033E+01 0.84831151769E+00 -.69111736263E+00 -.12625225069E+01 -.23583720180E+01
 -.47367761107E+01 -.80482711711E+01 -.12094874121E+02 -.16471129223E+02 -.20785226893E+02
 -.24572040011E+02 -.27712354600E+02 -.30006625704E+02 -.31448160631E+02 -.31900991765E+02
 -.31434279085E+02 -.29998667391E+02 -.27705255764E+02 -.24599011315E+02 -.20793829850E+02
 -.86646580576E+01 -.56692487041E+01 -.31842575753E+01 -.16792126169E+01 -.10551907360E+01
 -.27414997006E+00 0.11970260367E+01 0.24761263876E+01 0.35502599001E+01 0.45375434587E+01
 0.53383739264E+01 0.60552331450E+01 0.66357123764E+01 0.71441348262E+01 0.75487881532E+01
 0.78915707713E+01 0.81610923689E+01 0.83897761196E+01 0.85586853654E+01 0.87012609348E+01
 0.87967868311E+01 0.88764759552E+01 0.89163811928E+01 0.89460876363E+01 0.89393092637E+01
 0.89235026842E+01 0.88690062781E+01 0.88050655312E+01 0.86930198719E+01 0.85664271221E+01
 0.83808675617E+01 0.81712817766E+01 0.78832524067E+01 0.75586458631E+01 0.71324190514E+01
 0.66555120411E+01 0.60440686549E+01 0.53676897024E+01 0.45149012747E+01 0.35858608398E+01
 0.24401539900E+01 0.12415523532E+01 -.28809288048E+00 -.10860788518E+01 -.16131703684E+01
 -.32633211560E+01 -.56148098330E+01 -.86742167391E+01 -.11949597780E+02 -.15266579429E+02
 -.18201587296E+02 -.20586566831E+02 -.22222110002E+02 -.23075893209E+02 -.23081331633E+02
 -.22251252029E+02 -.20592835024E+02 -.18215106102E+02 -.15218379541E+02 -.11938037735E+02
 -.34778372909E+01 -.19536736700E+01 -.12180405781E+01 -.73424674990E+00 0.27614207892E+00
 0.16827185370E+01 0.27736227878E+01 0.37811809131E+01 0.46827342752E+01 0.54351144637E+01
 0.61106201983E+01 0.66691981148E+01 0.71518838787E+01 0.75492804379E+01 0.78828472076E+01
 0.81629489248E+01 0.83855430267E+01 0.85682962921E+01 0.87086795392E+01 0.88211301873E+01
 0.88995484089E+01 0.89575630972E+01 0.89872180029E+01 0.90009339486E+01 0.89865495603E+01
 0.89584963835E+01 0.88986652229E+01 0.88212866646E+01 0.87083397244E+01 0.85697418719E+01
 0.83843164783E+01 0.81630209743E+01 0.78823906512E+01 0.75514112321E+01 0.71442982767E+01
 0.66677162076E+01 0.60972802507E+01 0.54371011542E+01 0.46651228867E+01 0.37903526355E+01
 0.27714328218E+01 0.16458220882E+01 0.35732653469E+00 -.83975659462E+00 -.11250101394E+01
 -.19721112059E+01 -.35451584882E+01 -.54855030565E+01 -.77712730352E+01 -.10046564307E+02
 -.12103393264E+02 -.13696350814E+02 -.14714064067E+02 -.15049840005E+02 -.14692081632E+02
 -.13667299951E+02 -.12082840269E+02 -.10057122822E+02 -.78241049011E+01 -.55300868052E+01
 -.12334418098E+01 -.85991415747E+00 -.18644878337E+00 0.99384166523E+00 0.21892758695E+01
 0.31098955696E+01 0.40431876304E+01 0.48513233996E+01 0.55462210048E+01 0.61823088217E+01
 0.67040457929E+01 0.71719602666E+01 0.75558111647E+01 0.78917643719E+01 0.81631398899E+01
 0.83867166964E+01 0.85694929025E+01 0.87165746850E+01 0.88318775075E+01 0.89181510883E+01
 0.89819194012E+01 0.90210708264E+01 0.90423469648E+01 0.90405305683E+01 0.90231839203E+01
 0.89794727144E+01 0.89208139133E+01 0.88299075204E+01 0.87182542171E+01 0.85673050811E+01
 0.83891783734E+01 0.81596687498E+01 0.78930740531E+01 0.75590417412E+01 0.71769875464E+01
 0.67122547683E+01 0.61853557153E+01 0.55583329453E+01 0.48568505236E+01 0.40324642388E+01
 0.31476254894E+01 0.21232393119E+01 0.10564649580E+01 -.19661342458E+00 -.94827673797E+00
 -.11071992709E+01 -.18873243998E+01 -.30725743118E+01 -.44308505009E+01 -.57770451148E+01
 -.69777654646E+01 -.78634209771E+01 -.83501823117E+01 -.83524401605E+01 -.79010437809E+01
 -.70103736698E+01 -.57970303874E+01 -.43953757986E+01 -.29906920352E+01 -.18788175186E+01
 -.31048661394E+00 0.63352742082E+00 0.17436651430E+01 0.26713398708E+01 0.34920708033E+01
 0.43540173550E+01 0.50600942504E+01 0.57037965371E+01 0.62895193787E+01 0.67737053809E+01
 0.72199143896E+01 0.75817174526E+01 0.79035876895E+01 0.81602798655E+01 0.83860205111E+01
 0.85688473398E+01 0.87202292501E+01 0.88358573750E+01 0.89301830269E+01 0.89967184312E+01
 0.90456386813E+01 0.90716116057E+01 0.90821410039E+01 0.90719414876E+01 0.90450639940E+01
 0.89975610109E+01 0.89288418310E+01 0.88371624776E+01 0.87186296285E+01 0.85703436691E+01
 0.83864029992E+01 0.81637413174E+01 0.78961475582E+01 0.75813583406E+01 0.72078679243E+01
 0.67754139403E+01 0.62736548444E+01 0.57026015729E+01 0.50552371187E+01 0.43387234150E+01
 0.35279582000E+01 0.26550643304E+01 0.17040312912E+01 0.72738285365E+00 -.35654141194E+00
 -.91773153462E+00 -.10215907471E+01 -.14036821332E+01 -.20331195983E+01 -.27388846610E+01
 -.33322369131E+01 -.37380270172E+01 -.38633440107E+01 -.37190529530E+01 -.32911679631E+01
 -.26964132597E+01 -.20355043397E+01 -.14721927678E+01 -.11089113148E+01 -.82273211860E+00
 0.15499579260E+01 0.24042703115E+01 0.31439802004E+01 0.39152781219E+01 0.46616157840E+01
 0.52603341846E+01 0.58600658686E+01 0.63861094938E+01 0.68372426178E+01 0.72562605164E+01
 0.75975927751E+01 0.79096374339E+01 0.81636919897E+01 0.83898799519E+01 0.85683839183E+01
 0.87168162165E+01 0.88357760146E+01 0.89333968166E+01 0.90044829698E+01 0.90583927740E+01
 0.90912898134E+01 0.91094969600E+01 0.91081131253E+01 0.90923008133E+01 0.90576022896E+01
 0.90053661327E+01 0.89324530629E+01 0.88371733043E+01 0.87164460649E+01 0.85667821113E+01
 0.83863897514E+01 0.81693609414E+01 0.79115509493E+01 0.76078921806E+01 0.72558598968E+01
 0.68506413538E+01 0.63880557975E+01 0.58656240584E+01 0.52794849821E+01 0.46267528317E+01
 0.39267188317E+01 0.31681840372E+01 0.23688148513E+01 0.15230065892E+01 0.70677835993E+00
 -.18743257900E+00 -.78211584683E+00 -.94663415254E+00 -.10395395219E+01 -.11758161816E+01
 -.13349016045E+01 -.14304419264E+01 -.14464549447E+01 -.13582305394E+01 -.12301786918E+01
 -.10705498669E+01 -.91279255466E+00 -.67912131689E+00 -.18841219290E+00 0.61322191080E+00
 0.29530159852E+01 0.36232877335E+01 0.43151951558E+01 0.49240346147E+01 0.54636699921E+01
 0.60310025744E+01 0.64958934189E+01 0.69218167068E+01 0.73113051460E+01 0.76334379519E+01
 0.79313594015E+01 0.81726323928E+01 0.83872812381E+01 0.85583117629E+01 0.87088089444E+01
 0.88317616977E+01 0.89300671423E+01 0.90046007329E+01 0.90629702287E+01 0.91014741872E+01
 0.91252757368E+01 0.91320567937E+01 0.91255085361E+01 0.91015784486E+01 0.90624025240E+01
 0.90054173762E+01 0.89290909478E+01 0.88313750638E+01 0.87102408135E+01 0.85622084592E+01
 0.83829291800E+01 0.81707018949E+01 0.79213211248E+01 0.76329019349E+01 0.72998230886E+01
 0.69192024892E+01 0.64917757000E+01 0.60129784434E+01 0.54876654391E+01 0.49201233602E+01
 0.42986276438E+01 0.36444673188E+01 0.29655465027E+01 0.22816701927E+01 0.15815742612E+01
 0.94125357657E+00 0.27991231568E+00 -.29580925887E+00 -.63990232612E+00 -.81064040022E+00
 -.87841898994E+00 -.89676965651E+00 -.85815474975E+00 -.77299495706E+00 -.58816292191E+00
 -.28781422581E+00 0.20066734814E+00 0.88601659399E+00 0.16318548938E+01 0.23088599188E+01
 0.40661378121E+01 0.46410174351E+01 0.51498045934E+01 0.56704313771E+01 0.61729856562E+01
 0.65764807732E+01 0.69805252676E+01 0.73382082122E+01 0.76422184422E+01 0.79292533224E+01
 0.81607492212E+01 0.83744599565E+01 0.85468630054E+01 0.87013665392E+01 0.88209187533E+01
 0.89185116609E+01 0.89967159353E+01 0.90583543807E+01 0.91009859667E+01 0.91304654948E+01
 0.91437756588E+01 0.91445439324E+01 0.91293974069E+01 0.91019534186E+01 0.90576003311E+01
 0.89974133308E+01 0.89188885350E+01 0.88199419065E+01 0.86977263657E+01 0.85504395846E+01
 0.83756069338E+01 0.81704063022E+01 0.79305360965E+01 0.76536624915E+01 0.73392976917E+01
 0.69859732239E+01 0.65892043776E+01 0.61549785179E+01 0.56776537449E+01 0.51599305167E+01
 0.46222684937E+01 0.40623248581E+01 0.34796430617E+01 0.29028876485E+01 0.23543925228E+01
 0.18054641623E+01 0.13505443561E+01 0.96423964800E+00 0.61300714940E+00 0.34975824122E+00
 0.20770158732E+00 0.20103256925E+00 0.31807911331E+00 0.57009153362E+00 0.92869856047E+00
 0.13831242391E+01 0.18730508180E+01 0.23518440049E+01 0.28848673503E+01 0.34612855262E+01
 0.48678818585E+01 0.53388214368E+01 0.58276623163E+01 0.62530961435E+01 0.66341782783E+01
 0.70323495435E+01 0.73625339644E+01 0.76596035932E+01 0.79356750029E+01 0.81580420434E+01
 0.83677449292E+01 0.85330984897E+01 0.86822568041E+01 0.87965601395E+01 0.88996903937E+01
 0.89814517692E+01 0.90457886473E+01 0.90915208629E+01 0.91254987369E+01 0.91438651839E+01
 0.91509563389E+01 0.91439440318E+01 0.91255996409E+01 0.90917177040E+01 0.90451496226E+01
 0.89812314248E+01 0.89007357143E+01 0.87998517396E+01 0.86785458272E+01 0.85323909958E+01
 0.83593185720E+01 0.81561527598E+01 0.79242719849E+01 0.76580928064E+01 0.73584591456E+01
 0.70207366798E+01 0.66526885831E+01 0.62449313014E+01 0.58137330649E+01 0.53572381243E+01
 0.48743026266E+01 0.43730184765E+01 0.38834943289E+01 0.34062205144E+01 0.29214290821E+01
 0.25062969075E+01 0.21186389411E+01 0.17998400839E+01 0.15901307528E+01 0.14726910811E+01
 0.14409645887E+01 0.14904627504E+01 0.16289710156E+01 0.18351099540E+01 0.21198659187E+01
 0.24690713590E+01 0.28956149484E+01 0.34019937109E+01 0.38918914795E+01 0.43942714975E+01
 0.54717073036E+01 0.58966471314E+01 0.62862651380E+01 0.66705058582E+01 0.70470507320E+01
 0.73420560640E+01 0.76379798502E+01 0.78994190665E+01 0.81201212532E+01 0.83281130123E+01
 0.84941056338E+01 0.86461806920E+01 0.87680515592E+01 0.88765255766E+01 0.89575995760E+01
 0.90214106004E+01 0.90713041742E+01 0.91094759542E+01 0.91319804324E+01 0.91444018595E+01
 0.91438107975E+01 0.91326179184E+01 0.91083489356E+01 0.90724376941E+01 0.90217246089E+01
 0.89562082745E+01 0.88731981352E+01 0.87718325568E+01 0.86476760148E+01 0.85013162803E+01
 0.83297911242E+01 0.81313955160E+01 0.79015038380E+01 0.76422797955E+01 0.73504787684E+01
 0.70307757804E+01 0.66755696991E+01 0.62988875297E+01 0.58906677711E+01 0.54578237999E+01
 0.50263129884E+01 0.45820951179E+01 0.41435413502E+01 0.37145138020E+01 0.33286145767E+01
 0.29695142278E+01 0.26850355388E+01 0.24623486436E+01 0.22845027200E+01 0.21858620906E+01
 0.21735012600E+01 0.22603288554E+01 0.24244672806E+01 0.26775575955E+01 0.29778965813E+01
 0.33403153191E+01 0.37390754476E+01 0.41516268903E+01 0.45706380351E+01 0.50080476212E+01
 0.58700323184E+01 0.62617815650E+01 0.66441625214E+01 0.69884542753E+01 0.72835913607E+01
 0.75987801279E+01 0.78539204141E+01 0.80825261128E+01 0.82911402379E+01 0.84580553475E+01
 0.86118928553E+01 0.87328225830E+01 0.88372395145E+01 0.89170805642E+01 0.89863423661E+01
 0.90429921550E+01 0.90815662538E+01 0.91084734340E+01 0.91249950840E+01 0.91303369336E+01
 0.91247841382E+01 0.91089809853E+01 0.90814040228E+01 0.90418674585E+01 0.89880499959E+01
 0.89205133034E+01 0.88340451979E+01 0.87302558799E+01 0.86048353303E+01 0.84565877674E+01
 0.82810598391E+01 0.80794918741E+01 0.78497735531E+01 0.75909876010E+01 0.73013943111E+01
 0.69816217329E+01 0.66372276040E+01 0.62636508996E+01 0.58728633273E+01 0.54783354099E+01
 0.50560771446E+01 0.46365773714E+01 0.42482031682E+01 0.38743826981E+01 0.35073589506E+01
 0.32009966826E+01 0.29391667428E+01 0.27449364905E+01 0.26441957693E+01 0.26167248582E+01
 0.26633434956E+01 0.27711571534E+01 0.29559728151E+01 0.31978992023E+01 0.35154510428E+01
 0.38618861978E+01 0.42248268944E+01 0.46289931170E+01 0.50734515467E+01 0.54812180342E+01
 0.61545759359E+01 0.65343345689E+01 0.68693378404E+01 0.71994896181E+01 0.75134946516E+01
 0.77590800109E+01 0.79964706153E+01 0.82078352178E+01 0.83792474196E+01 0.85417830130E+01
 0.86659915127E+01 0.87803048446E+01 0.88682895405E+01 0.89465601781E+01 0.90005714774E+01
 0.90408946757E+01 0.90719858451E+01 0.90928350674E+01 0.91010788752E+01 0.91020961907E+01
 0.90918459853E+01 0.90725553910E+01 0.90414389624E+01 0.89993487664E+01 0.89428540176E+01
 0.88710947593E+01 0.87828349209E+01 0.86739598004E+01 0.85432559028E+01 0.83889325081E+01
 0.82096468395E+01 0.80023225022E+01 0.77643580397E+01 0.74983313194E+01 0.72017693807E+01
 0.68799332201E+01 0.65260404523E+01 0.61590468011E+01 0.57627490995E+01 0.53542808218E+01
 0.49503868815E+01 0.45563663001E+01 0.41661900774E+01 0.37896821023E+01 0.34769535629E+01
 0.32052952997E+01 0.30106998706E+01 0.28775444605E+01 0.27970738941E+01 0.27888454419E+01
 0.28556626746E+01 0.29992132159E+01 0.31996232175E+01 0.34661051232E+01 0.37871590100E+01
 0.41742474615E+01 0.45838315185E+01 0.49460444894E+01 0.53493157326E+01 0.57563705847E+01
 0.63208827076E+01 0.66901624459E+01 0.70431625198E+01 0.73533503656E+01 0.76178218435E+01
 0.78894210180E+01 0.81106450045E+01 0.82988768838E+01 0.84710561415E+01 0.86014679199E+01
 0.87217148715E+01 0.88100217657E+01 0.88861592333E+01 0.89390437963E+01 0.89868186809E+01
 0.90227180769E+01 0.90447988910E+01 0.90572071230E+01 0.90629248049E+01 0.90570690540E+01
 0.90452142726E+01 0.90212224043E+01 0.89890465792E+01 0.89421497263E+01 0.88839465062E+01
 0.88073994877E+01 0.87138708663E+01 0.85987235936E+01 0.84618679922E+01 0.82972732929E+01
 0.81058530646E+01 0.78836027882E+01 0.76340763809E+01 0.73491719928E+01 0.70380960288E+01
 0.66909878890E+01 0.63268090309E+01 0.59279022751E+01 0.55218797028E+01 0.51199168501E+01
 0.46860885098E+01 0.42685033196E+01 0.38975203440E+01 0.35630030973E+01 0.32417859941E+01
 0.29776430427E+01 0.27651201473E+01 0.26297667659E+01 0.25946867301E+01 0.26419637837E+01
 0.27760776499E+01 0.29794224771E+01 0.32591710697E+01 0.35675251474E+01 0.39035329616E+01
 0.42547830354E+01 0.46688044714E+01 0.51202200551E+01 0.55249469320E+01 0.59438604597E+01
 0.64254798156E+01 0.68004495197E+01 0.71344278138E+01 0.74461188625E+01 0.77394466022E+01
 0.79613593887E+01 0.81695746644E+01 0.83500713754E+01 0.84921726976E+01 0.86224814486E+01
 0.87194783117E+01 0.88049678914E+01 0.88691401386E+01 0.89236898444E+01 0.89582555487E+01
 0.89799327360E+01 0.89981179150E+01 0.90050570500E+01 0.90057880195E+01 0.89973713902E+01
 0.89817453233E+01 0.89558579641E+01 0.89202950615E+01 0.88711010899E+01 0.88080636711E+01
 0.87265746485E+01 0.86263884231E+01 0.85012982799E+01 0.83521476266E+01 0.81732254069E+01
 0.79662661613E+01 0.77240029841E+01 0.74494652628E+01 0.71400213450E+01 0.67973796232E+01
 0.64250891142E+01 0.60210726165E+01 0.55999981254E+01 0.51599970931E+01 0.46968463107E+01
 0.42542242274E+01 0.38447849514E+01 0.34358302315E+01 0.30409845210E+01 0.27220515740E+01
 0.24724744286E+01 0.23206627974E+01 0.22490259653E+01 0.22436631920E+01 0.23173313501E+01
 0.24688751840E+01 0.27105356988E+01 0.30292440280E+01 0.34283738154E+01 0.38456157181E+01
 0.42616556227E+01 0.47122622521E+01 0.51638381644E+01 0.55849655230E+01 0.60175778239E+01
 0.64700012273E+01 0.68499748696E+01 0.72077586657E+01 0.75112136057E+01 0.77663415604E+01
 0.80158747623E+01 0.82176447763E+01 0.83795672218E+01 0.85256184480E+01 0.86288116720E+01
 0.87217360107E+01 0.87848307489E+01 0.88371261458E+01 0.88685916645E+01 0.88993354917E+01
 0.89196889700E+01 0.89293629866E+01 0.89318038945E+01 0.89292912850E+01 0.89184844180E+01
 0.89010288192E+01 0.88729261965E+01 0.88349431336E+01 0.87821299122E+01 0.87138591494E+01
 0.86256241567E+01 0.85151086642E+01 0.83781460799E+01 0.82129831421E+01 0.80137085607E+01
 0.77804985711E+01 0.75089901596E+01 0.72019083826E+01 0.68522925263E+01 0.64716404358E+01
 0.60446345937E+01 0.56038858147E+01 0.51169842639E+01 0.46252185676E+01 0.41569926513E+01
 0.36516076005E+01 0.31514234651E+01 0.27226194956E+01 0.23837835820E+01 0.20929533343E+01
 0.18767633718E+01 0.17240499474E+01 0.16669352686E+01 0.17222965759E+01 0.18744239004E+01
 0.21054132715E+01 0.23902966941E+01 0.27372946884E+01 0.31522991877E+01 0.36525586242E+01
 0.41548281356E+01 0.46048110180E+01 0.51257653714E+01 0.56087788675E+01 0.60498847967E+01
 0.64887219042E+01 0.68829300839E+01 0.72327045182E+01 0.75423033281E+01 0.78268974970E+01
 0.80338774584E+01 0.82205482373E+01 0.83756553233E+01 0.84922057917E+01 0.85947526466E+01