       N       E                     dE             d eps       ncg     rms          rms(c)
DAV:   1     0.467154618172E+01    0.46715E+01   -0.31337E+03 21024   0.965E+01
DAV:   2    -0.104332045451E+02   -0.15105E+02   -0.14709E+02 30208   0.239E+01
DAV:   3    -0.105720005084E+02   -0.13880E+00   -0.13877E+00 22912   0.173E+00
DAV:   4    -0.105720789832E+02   -0.78475E-04   -0.78474E-04 30016   0.502E-02
DAV:   5    -0.105720790782E+02   -0.95035E-07   -0.95024E-07 18016   0.152E-03
DAV:   6    -0.105720790813E+02   -0.30594E-08   -0.30740E-08 24544   0.256E-04
   1 F= -.10572079E+02 E0= -.10572079E+02  d E =0.000000E+00
