 vasp.5.4.1 24Jun15 (build Feb 01 2016 23:38:11) complex                        
  
 executed on           IFC91_impi date 2016.08.04  16:42:38
 running on   32 total cores
 distrk:  each k-point on   32 cores,    1 groups
 distr:  one band on NCORES_PER_BAND=   1 cores,   32 groups


--------------------------------------------------------------------------------------------------------


 INCAR:
 POTCAR:   PAW_PBE Si 05Jan2001                   

 ----------------------------------------------------------------------------- 
|                                                                             |
|           W    W    AA    RRRRR   N    N  II  N    N   GGGG   !!!           |
|           W    W   A  A   R    R  NN   N  II  NN   N  G    G  !!!           |
|           W    W  A    A  R    R  N N  N  II  N N  N  G       !!!           |
|           W WW W  AAAAAA  RRRRR   N  N N  II  N  N N  G  GGG   !            |
|           WW  WW  A    A  R   R   N   NN  II  N   NN  G    G                |
|           W    W  A    A  R    R  N    N  II  N    N   GGGG   !!!           |
|                                                                             |
|      For optimal performance we recommend to set                            |
|        NCORE= 4 - approx SQRT( number of cores)                             |
|      NCORE specifies how many cores store one orbital (NPAR=cpu/NCORE).     |
|      This setting can  greatly improve the performance of VASP for DFT.     |
|      The default, NPAR=number of cores might be grossly inefficient         |
|      on modern multi-core architectures or massively parallel machines.     |
|      Do your own testing !!!!                                               |
|      Unfortunately you need to use the default for GW and RPA calculations. |
|      (for HF NCORE is supported but not extensively tested yet)             |
|                                                                             |
 ----------------------------------------------------------------------------- 

 POTCAR:   PAW_PBE Si 05Jan2001                   
   VRHFIN =Si: s2p2                                                             
   LEXCH  = PE                                                                  
   EATOM  =   103.0669 eV,    7.5752 Ry                                         
                                                                                
   TITEL  = PAW_PBE Si 05Jan2001                                                
   LULTRA =        F    use ultrasoft PP ?                                      
   IUNSCR =        1    unscreen: 0-lin 1-nonlin 2-no                           
   RPACOR =    1.500    partial core radius                                     
   POMASS =   28.085; ZVAL   =    4.000    mass and valenz                      
   RCORE  =    1.900    outmost cutoff radius                                   
   RWIGS  =    2.480; RWIGS  =    1.312    wigner-seitz radius (au A)           
   ENMAX  =  245.345; ENMIN  =  184.009 eV                                      
   ICORE  =        2    local potential                                         
   LCOR   =        T    correct aug charges                                     
   LPAW   =        T    paw PP                                                  
   EAUG   =  322.069                                                            
   DEXC   =    -.007                                                            
   RMAX   =    2.944    core radius for proj-oper                               
   RAUG   =    1.300    factor for augmentation sphere                          
   RDEP   =    1.993    radius for radial grids                                 
   QCUT   =   -4.246; QGAM   =    8.493    optimization parameters              
                                                                                
   Description                                                                  
     l     E      TYP  RCUT    TYP  RCUT                                        
     0   .000     23  1.900                                                     
     0   .000     23  1.900                                                     
     1   .000     23  1.900                                                     
     1   .000     23  1.900                                                     
     2   .000      7  1.900                                                     
  local pseudopotential read in
  partial core-charges read in
  atomic valenz-charges read in
  non local Contribution for L=           0  read in
    real space projection operators read in
  non local Contribution for L=           0  read in
    real space projection operators read in
  non local Contribution for L=           1  read in
    real space projection operators read in
  non local Contribution for L=           1  read in
    real space projection operators read in
    PAW grid and wavefunctions read in
 
   number of l-projection  operators is LMAX  =           4
   number of lm-projection operators is LMMAX =           8
 

 ----------------------------------------------------------------------------- 
|                                                                             |
|  ADVICE TO THIS USER RUNNING 'VASP/VAMP'   (HEAR YOUR MASTER'S VOICE ...):  |
|                                                                             |
|      You have a (more or less) 'small supercell' and for smaller cells      |
|      it is recommended  to use the reciprocal-space projection scheme!      |
|      The real space optimization is not  efficient for small cells and it   |
|      is also less accurate ...                                              |
|      Therefore set LREAL=.FALSE. in the  INCAR file                         |
|                                                                             |
 ----------------------------------------------------------------------------- 

 Optimization of the real space projectors (new method)

 maximal supplied QI-value         = 19.84
 optimisation between [QCUT,QGAM] = [ 11.51, 23.22] = [ 37.09,150.92] Ry 
 Optimized for a Real-space Cutoff    1.21 Angstroem

   l    n(q)    QCUT    max X(q) W(low)/X(q) W(high)/X(q)  e(spline) 
   0      8    11.508     8.708    0.18E-04    0.44E-05    0.47E-08
   0      8    11.508   106.241    0.70E-04    0.15E-03    0.51E-07
   1      8    11.508     5.901    0.63E-05    0.23E-04    0.21E-07
   1      8    11.508    73.241    0.15E-03    0.36E-04    0.79E-07
 PAW_PBE Si 05Jan2001                   :
 energy of atom  1       EATOM= -103.0669
 kinetic energy error for atom=    0.0005 (will be added to EATOM!!)
 
 
 POSCAR: Si2                                     
  positions in direct lattice
  No initial velocities read in
 exchange correlation table for  LEXCH =        8
   RHO(1)=    0.500       N(1)  =     2000
   RHO(2)=  100.500       N(2)  =     4000
 


--------------------------------------------------------------------------------------------------------


 ion  position               nearest neighbor table
   1  0.000  0.000  0.000-   2 2.37   2 2.37   2 2.37   2 2.37
   2  0.750  0.500  0.750-   1 2.37   1 2.37   1 2.37   1 2.37
 

IMPORTANT INFORMATION: All symmetrisations will be switched off!
NOSYMM: (Re-)initialisation of all symmetry stuff for point group C_1.

 
 
 KPOINTS: Non SCF run along symmetry lines        
  k-points in reciprocal lattice
Space group operators:
 irot       det(A)        alpha          n_x          n_y          n_z        tau_x        tau_y        tau_z
    1     1.000000     0.000000     1.000000     0.000000     0.000000     0.000000     0.000000     0.000000

 ----------------------------------------------------------------------------- 
|                                                                             |
|           W    W    AA    RRRRR   N    N  II  N    N   GGGG   !!!           |
|           W    W   A  A   R    R  NN   N  II  NN   N  G    G  !!!           |
|           W    W  A    A  R    R  N N  N  II  N N  N  G       !!!           |
|           W WW W  AAAAAA  RRRRR   N  N N  II  N  N N  G  GGG   !            |
|           WW  WW  A    A  R   R   N   NN  II  N   NN  G    G                |
|           W    W  A    A  R    R  N    N  II  N    N   GGGG   !!!           |
|                                                                             |
|      The number of bands has been changed from the values supplied          |
|      in the INCAR file. This is a result of running the parallel version.   |
|      The orbitals not found in the WAVECAR file will be initialized with    |
|      random numbers, which is usually adequate. For correlated              |
|      calculations, however, you should redo the groundstate calculation.    |
|      I found NBANDS    =       39  now  NBANDS  =      64                   |
|                                                                             |
 ----------------------------------------------------------------------------- 



--------------------------------------------------------------------------------------------------------




 Dimension of arrays:
   k-points           NKPTS =    164   k-points in BZ     NKDIM =    164   number of bands    NBANDS=     64
   number of dos      NEDOS =    301   number of ions     NIONS =      2
   non local maximal  LDIM  =      4   non local SUM 2l+1 LMDIM =      8
   total plane-waves  NPLWV =  27000
   max r-space proj   IRMAX =   4958   max aug-charges    IRDMAX=  22266
   dimension x,y,z NGX =    30 NGY =   30 NGZ =   30
   dimension x,y,z NGXF=    60 NGYF=   60 NGZF=   60
   support grid    NGXF=    60 NGYF=   60 NGZF=   60
   ions per type =               2
 NGX,Y,Z   is equivalent  to a cutoff of  12.90, 12.90, 12.90 a.u.
 NGXF,Y,Z  is equivalent  to a cutoff of  25.79, 25.79, 25.79 a.u.


 I would recommend the setting:
   dimension x,y,z NGX =    29 NGY =   29 NGZ =   29
 SYSTEM =  unknown system                          
 POSCAR =  Si2                                     

 Startparameter for this run:
   NWRITE =      2    write-flag & timer
   PREC   = accura    normal or accurate (medium, high low for compatibility)
   ISTART =      0    job   : 0-new  1-cont  2-samecut
   ICHARG =     11    charge: 1-file 2-atom 10-const
   ISPIN  =      1    spin polarized calculation?
   LNONCOLLINEAR =      F non collinear calculations
   LSORBIT =      F    spin-orbit coupling
   INIWAV =      1    electr: 0-lowe 1-rand  2-diag
   LASPH  =      F    aspherical Exc in radial PAW
   METAGGA=      F    non-selfconsistent MetaGGA calc.

 Electronic Relaxation 1
   ENCUT  =  520.0 eV  38.22 Ry    6.18 a.u.   7.19  7.19  7.19*2*pi/ulx,y,z
   ENINI  =  520.0     initial cutoff
   ENAUG  =  322.1 eV  augmentation charge cutoff
   NELM   =    100;   NELMIN=  2; NELMDL= -5     # of ELM steps 
   EDIFF  = 0.1E-03   stopping-criterion for ELM
   LREAL  =      T    real-space projection
   NLSPLINE    = F    spline interpolate recip. space projectors
   LCOMPAT=      F    compatible to vasp.4.4
   GGA_COMPAT  = T    GGA compatible to vasp.4.4-vasp.4.6
   LMAXPAW     = -100 max onsite density
   LMAXMIX     =    2 max onsite mixed and CHGCAR
   VOSKOWN=      0    Vosko Wilk Nusair interpolation
   ROPT   =   -0.00025
 Ionic relaxation
   EDIFFG = 0.1E-02   stopping-criterion for IOM
   NSW    =      0    number of steps for IOM
   NBLOCK =      1;   KBLOCK =      1    inner block; outer block 
   IBRION =     -1    ionic relax: 0-MD 1-quasi-New 2-CG
   NFREE  =      0    steps in history (QN), initial steepest desc. (CG)
   ISIF   =      3    stress and relaxation
   IWAVPR =     10    prediction:  0-non 1-charg 2-wave 3-comb
   ISYM   =      0    0-nonsym 1-usesym 2-fastsym
   LCORR  =      T    Harris-Foulkes like correction to forces

   POTIM  = 0.5000    time-step for ionic-motion
   TEIN   =    0.0    initial temperature
   TEBEG  =    0.0;   TEEND  =   0.0 temperature during run
   SMASS  =  -3.00    Nose mass-parameter (am)
   estimated Nose-frequenzy (Omega)   =  0.10E-29 period in steps =****** mass=  -0.342E-27a.u.
   SCALEE = 1.0000    scale energy and forces
   NPACO  =    256;   APACO  = 16.0  distance and # of slots for P.C.
   PSTRESS=    0.0 pullay stress

  Mass of Ions in am
   POMASS =  28.09
  Ionic Valenz
   ZVAL   =   4.00
  Atomic Wigner-Seitz radii
   RWIGS  =  -1.00
  virtual crystal weights 
   VCA    =   1.00
   NELECT =       8.0000    total number of electrons
   NUPDOWN=      -1.0000    fix difference up-down

 DOS related values:
   EMIN   =  10.00;   EMAX   =-10.00  energy-range for DOS
   EFERMI =   0.00
   ISMEAR =     0;   SIGMA  =   0.00  broadening in eV -4-tet -1-fermi 0-gaus

 Electronic relaxation 2 (details)
   IALGO  =     38    algorithm
   LDIAG  =      T    sub-space diagonalisation (order eigenvalues)
   LSUBROT=      F    optimize rotation matrix (better conditioning)
   TURBO    =      0    0=normal 1=particle mesh
   IRESTART =      0    0=no restart 2=restart with 2 vectors
   NREBOOT  =      0    no. of reboots
   NMIN     =      0    reboot dimension
   EREF     =   0.00    reference energy to select bands
   IMIX   =      4    mixing-type and parameters
     AMIX     =   0.40;   BMIX     =  1.00
     AMIX_MAG =   1.60;   BMIX_MAG =  1.00
     AMIN     =   0.10
     WC   =   100.;   INIMIX=   1;  MIXPRE=   1;  MAXMIX= -45

 Intra band minimization:
   WEIMIN = 0.0000     energy-eigenvalue tresh-hold
   EBREAK =  0.39E-06  absolut break condition
   DEPER  =   0.30     relativ break condition  

   TIME   =   0.40     timestep for ELM

  volume/ion in A,a.u.               =      20.45       138.02
  Fermi-wavevector in a.u.,A,eV,Ry     =   0.950272  1.795754 12.286290  0.903017
  Thomas-Fermi vector in A             =   2.078633
 
 Write flags
   LWAVE  =      F    write WAVECAR
   LCHARG =      F    write CHGCAR
   LVTOT  =      F    write LOCPOT, total local potential
   LVHAR  =      T    write LOCPOT, Hartree potential only
   LELF   =      F    write electronic localiz. function (ELF)
   LORBIT =     11    0 simple, 1 ext, 2 COOP (PROOUT)


 Dipole corrections
   LMONO  =      F    monopole corrections only (constant potential shift)
   LDIPOL =      F    correct potential (dipole corrections)
   IDIPOL =      0    1-x, 2-y, 3-z, 4-all directions 
   EPSILON=  1.0000000 bulk dielectric constant

 Exchange correlation treatment:
   GGA     =    --    GGA type
   LEXCH   =     8    internal setting for exchange type
   VOSKOWN=      0    Vosko Wilk Nusair interpolation
   LHFCALC =     F    Hartree Fock is set to
   LHFONE  =     F    Hartree Fock one center treatment
   AEXX    =    0.0000 exact exchange contribution

 Linear response parameters
   LEPSILON=     F    determine dielectric tensor
   LRPA    =     F    only Hartree local field effects (RPA)
   LNABLA  =     F    use nabla operator in PAW spheres
   LVEL    =     F    velocity operator in full k-point grid
   LINTERFAST=   F  fast interpolation
   KINTER  =     0    interpolate to denser k-point grid
   CSHIFT  =0.1000    complex shift for real part using Kramers Kronig
   OMEGAMAX=  -1.0    maximum frequency
   DEG_THRESHOLD= 0.2000000E-02 threshold for treating states as degnerate
   RTIME   =    0.100 relaxation time in fs

 Orbital magnetization related:
   ORBITALMAG=     F  switch on orbital magnetization
   LCHIMAG   =     F  perturbation theory with respect to B field
   DQ        =  0.001000  dq finite difference perturbation B field



--------------------------------------------------------------------------------------------------------


 Static calculation
 charge density and potential remain constant during run
 non-spin polarized calculation
 Variant of blocked Davidson
 Davidson routine will perform the subspace rotation
 perform sub-space diagonalisation
    after iterative eigenvector-optimisation
 no mixing
 using additional bands           60
 real space projection scheme for non local part
 use partial core corrections
 calculate Harris-corrections to forces 
   (improved forces if not selfconsistent)
 use gradient corrections 
 WARNING: stress and forces are not correct
  (second derivative of E(xc) not defined)
 use of overlap-Matrix (Vanderbilt PP)
 Gauss-broadening in eV      SIGMA  =   0.00


--------------------------------------------------------------------------------------------------------


  energy-cutoff  :      520.00
  volume of cell :       40.90
      direct lattice vectors                 reciprocal lattice vectors
     3.867484000  0.000000000  0.000000000     0.258566034 -0.149283142 -0.105559013
     1.933742000  3.349340000  0.000000000     0.000000000  0.298566285  0.211118026
     0.000000000 -2.232891000  3.157788000     0.000000000  0.000000000  0.316677370

  length of vectors
     3.867484000  3.867484526  3.867483325     0.316677369  0.365667400  0.316677370


 
 k-points in units of 2pi/SCALE and weight: Non SCF run along symmetry lines        
   0.00000000  0.00000000  0.00000000       0.006
   0.00562100 -0.00324529  0.00458953       0.006
   0.01124200 -0.00649057  0.00917906       0.006
   0.01686300 -0.00973586  0.01376859       0.006
   0.02248400 -0.01298114  0.01835812       0.006
   0.02810500 -0.01622643  0.02294765       0.006
   0.03372600 -0.01947171  0.02753718       0.006
   0.03934701 -0.02271700  0.03212671       0.006
   0.04496801 -0.02596229  0.03671624       0.006
   0.05058901 -0.02920757  0.04130577       0.006
   0.05621001 -0.03245286  0.04589530       0.006
   0.06183101 -0.03569814  0.05048482       0.006
   0.06745201 -0.03894343  0.05507435       0.006
   0.07307301 -0.04218871  0.05966388       0.006
   0.07869401 -0.04543400  0.06425341       0.006
   0.08431501 -0.04867929  0.06884294       0.006
   0.08993601 -0.05192457  0.07343247       0.006
   0.09555701 -0.05516986  0.07802200       0.006
   0.10117801 -0.05841514  0.08261153       0.006
   0.10679901 -0.06166043  0.08720106       0.006
   0.11242001 -0.06490571  0.09179059       0.006
   0.11804102 -0.06815100  0.09638012       0.006
   0.12366202 -0.07139629  0.10096965       0.006
   0.12928302 -0.07464157  0.10555918       0.006
   0.12928302 -0.07464157  0.10555918       0.006
   0.12928302 -0.06842144  0.11655492       0.006
   0.12928302 -0.06220131  0.12755065       0.006
   0.12928302 -0.05598118  0.13854639       0.006
   0.12928302 -0.04976105  0.14954213       0.006
   0.12928302 -0.04354092  0.16053787       0.006
   0.12928302 -0.03732079  0.17153360       0.006
   0.12928302 -0.03110065  0.18252934       0.006
   0.12928302 -0.02488052  0.19352508       0.006
   0.12928302 -0.01866039  0.20452082       0.006
   0.12928302 -0.01244026  0.21551655       0.006
   0.12928302 -0.00622013  0.22651229       0.006
   0.12928302  0.00000000  0.23750803       0.006
   0.12928302  0.00000000  0.23750803       0.006
   0.12569182  0.00622013  0.24190632       0.006
   0.12210063  0.01244026  0.24630461       0.006
   0.11850943  0.01866039  0.25070290       0.006
   0.11491824  0.02488052  0.25510120       0.006
   0.11132704  0.03110065  0.25949949       0.006
   0.10773585  0.03732079  0.26389778       0.006
   0.10414465  0.04354092  0.26829607       0.006
   0.10055346  0.04976105  0.27269437       0.006
   0.09696226  0.05598118  0.27709266       0.006
   0.09696226  0.05598118  0.27709266       0.006
   0.09308377  0.05374193  0.26600895       0.006
   0.08920528  0.05150268  0.25492525       0.006
   0.08532679  0.04926344  0.24384154       0.006
   0.08144830  0.04702419  0.23275783       0.006
   0.07756981  0.04478494  0.22167413       0.006
   0.07369132  0.04254570  0.21059042       0.006
   0.06981283  0.04030645  0.19950671       0.006
   0.06593434  0.03806720  0.18842301       0.006
   0.06205585  0.03582795  0.17733930       0.006
   0.05817736  0.03358871  0.16625559       0.006
   0.05429887  0.03134946  0.15517189       0.006
   0.05042038  0.02911021  0.14408818       0.006
   0.04654189  0.02687097  0.13300448       0.006
   0.04266340  0.02463172  0.12192077       0.006
   0.03878491  0.02239247  0.11083706       0.006
   0.03490641  0.02015322  0.09975336       0.006
   0.03102792  0.01791398  0.08866965       0.006
   0.02714943  0.01567473  0.07758594       0.006
   0.02327094  0.01343548  0.06650224       0.006
   0.01939245  0.01119624  0.05541853       0.006
   0.01551396  0.00895699  0.04433483       0.006
   0.01163547  0.00671774  0.03325112       0.006
   0.00775698  0.00447849  0.02216741       0.006
   0.00387849  0.00223925  0.01108371       0.006
   0.00000000  0.00000000  0.00000000       0.006
   0.00000000  0.00000000  0.00000000       0.006
   0.00646415  0.00373208  0.01055591       0.006
   0.01292830  0.00746416  0.02111182       0.006
   0.01939245  0.01119624  0.03166773       0.006
   0.02585660  0.01492831  0.04222364       0.006
   0.03232075  0.01866039  0.05277955       0.006
   0.03878491  0.02239247  0.06333546       0.006
   0.04524906  0.02612455  0.07389137       0.006
   0.05171321  0.02985663  0.08444728       0.006
   0.05817736  0.03358871  0.09500319       0.006
   0.06464151  0.03732079  0.10555910       0.006
   0.07110566  0.04105286  0.11611501       0.006
   0.07756981  0.04478494  0.12667092       0.006
   0.08403396  0.04851702  0.13722682       0.006
   0.09049811  0.05224910  0.14778273       0.006
   0.09696226  0.05598118  0.15833864       0.006
   0.10342641  0.05971326  0.16889455       0.006
   0.10989056  0.06344534  0.17945046       0.006
   0.11635472  0.06717741  0.19000637       0.006
   0.12281887  0.07090949  0.20056228       0.006
   0.12928302  0.07464157  0.21111819       0.006
   0.12928302  0.07464157  0.21111819       0.006
   0.13143773  0.06842144  0.20935888       0.006
   0.13359245  0.06220131  0.20759956       0.006
   0.13574717  0.05598118  0.20584025       0.006
   0.13790188  0.04976105  0.20408094       0.006
   0.14005660  0.04354092  0.20232162       0.006
   0.14221132  0.03732079  0.20056231       0.006
   0.14436604  0.03110065  0.19880299       0.006
   0.14652075  0.02488052  0.19704368       0.006
   0.14867547  0.01866039  0.19528436       0.006
   0.15083019  0.01244026  0.19352505       0.006
   0.15298490  0.00622013  0.19176574       0.006
   0.15513962  0.00000000  0.19000642       0.006
   0.15729434 -0.00622013  0.18824711       0.006
   0.15944905 -0.01244026  0.18648779       0.006
   0.16160377 -0.01866039  0.18472848       0.006
   0.16160377 -0.01866039  0.18472848       0.006
   0.15801258 -0.01658702  0.19059287       0.006
   0.15442138 -0.01451364  0.19645727       0.006
   0.15083019 -0.01244026  0.20232166       0.006
   0.14723899 -0.01036688  0.20818606       0.006
   0.14364780 -0.00829351  0.21405045       0.006
   0.14005660 -0.00622013  0.21991485       0.006
   0.13646541 -0.00414675  0.22577924       0.006
   0.13287421 -0.00207338  0.23164363       0.006
   0.12928302  0.00000000  0.23750803       0.006
   0.12928302  0.00000000  0.23750803       0.006
   0.12928302  0.00439068  0.23595568       0.006
   0.12928302  0.00878136  0.23440334       0.006
   0.12928302  0.01317204  0.23285100       0.006
   0.12928302  0.01756272  0.23129865       0.006
   0.12928302  0.02195340  0.22974631       0.006
   0.12928302  0.02634408  0.22819397       0.006
   0.12928302  0.03073476  0.22664162       0.006
   0.12928302  0.03512545  0.22508928       0.006
   0.12928302  0.03951613  0.22353694       0.006
   0.12928302  0.04390681  0.22198459       0.006
   0.12928302  0.04829749  0.22043225       0.006
   0.12928302  0.05268817  0.21887991       0.006
   0.12928302  0.05707885  0.21732756       0.006
   0.12928302  0.06146953  0.21577522       0.006
   0.12928302  0.06586021  0.21422288       0.006
   0.12928302  0.07025089  0.21267054       0.006
   0.12928302  0.07464157  0.21111819       0.006
   0.12928302  0.07464157  0.21111819       0.006
   0.12712830  0.07339754  0.21551649       0.006
   0.12497358  0.07215352  0.21991479       0.006
   0.12281887  0.07090949  0.22431308       0.006
   0.12066415  0.06966547  0.22871138       0.006
   0.11850943  0.06842144  0.23310968       0.006
   0.11635472  0.06717741  0.23750798       0.006
   0.11420000  0.06593339  0.24190628       0.006
   0.11204528  0.06468936  0.24630457       0.006
   0.10989056  0.06344534  0.25070287       0.006
   0.10773585  0.06220131  0.25510117       0.006
   0.10558113  0.06095728  0.25949947       0.006
   0.10342641  0.05971326  0.26389776       0.006
   0.10127170  0.05846923  0.26829606       0.006
   0.09911698  0.05722520  0.27269436       0.006
   0.09696226  0.05598118  0.27709266       0.006
   0.16160377 -0.01866039  0.18472848       0.006
   0.15801258 -0.02488052  0.17593189       0.006
   0.15442138 -0.03110065  0.16713530       0.006
   0.15083019 -0.03732079  0.15833871       0.006
   0.14723899 -0.04354092  0.14954212       0.006
   0.14364780 -0.04976105  0.14074553       0.006
   0.14005660 -0.05598118  0.13194895       0.006
   0.13646541 -0.06220131  0.12315236       0.006
   0.13287421 -0.06842144  0.11435577       0.006
   0.12928302 -0.07464157  0.10555918       0.006
 
 k-points in reciprocal lattice and weights: Non SCF run along symmetry lines        
   0.00000000  0.00000000  0.00000000       0.006
   0.02173913  0.00000000  0.02173913       0.006
   0.04347826  0.00000000  0.04347826       0.006
   0.06521739  0.00000000  0.06521739       0.006
   0.08695652  0.00000000  0.08695652       0.006
   0.10869565  0.00000000  0.10869565       0.006
   0.13043478  0.00000000  0.13043478       0.006
   0.15217391  0.00000000  0.15217391       0.006
   0.17391304  0.00000000  0.17391304       0.006
   0.19565217  0.00000000  0.19565217       0.006
   0.21739130  0.00000000  0.21739130       0.006
   0.23913043  0.00000000  0.23913043       0.006
   0.26086957  0.00000000  0.26086957       0.006
   0.28260870  0.00000000  0.28260870       0.006
   0.30434783  0.00000000  0.30434783       0.006
   0.32608696  0.00000000  0.32608696       0.006
   0.34782609  0.00000000  0.34782609       0.006
   0.36956522  0.00000000  0.36956522       0.006
   0.39130435  0.00000000  0.39130435       0.006
   0.41304348  0.00000000  0.41304348       0.006
   0.43478261  0.00000000  0.43478261       0.006
   0.45652174  0.00000000  0.45652174       0.006
   0.47826087  0.00000000  0.47826087       0.006
   0.50000000  0.00000000  0.50000000       0.006
   0.50000000  0.00000000  0.50000000       0.006
   0.50000000  0.02083333  0.52083333       0.006
   0.50000000  0.04166667  0.54166667       0.006
   0.50000000  0.06250000  0.56250000       0.006
   0.50000000  0.08333333  0.58333333       0.006
   0.50000000  0.10416667  0.60416667       0.006
   0.50000000  0.12500000  0.62500000       0.006
   0.50000000  0.14583333  0.64583333       0.006
   0.50000000  0.16666667  0.66666667       0.006
   0.50000000  0.18750000  0.68750000       0.006
   0.50000000  0.20833333  0.70833333       0.006
   0.50000000  0.22916667  0.72916667       0.006
   0.50000000  0.25000000  0.75000000       0.006
   0.50000000  0.25000000  0.75000000       0.006
   0.48611111  0.26388889  0.75000000       0.006
   0.47222222  0.27777778  0.75000000       0.006
   0.45833333  0.29166667  0.75000000       0.006
   0.44444444  0.30555556  0.75000000       0.006
   0.43055556  0.31944444  0.75000000       0.006
   0.41666667  0.33333333  0.75000000       0.006
   0.40277778  0.34722222  0.75000000       0.006
   0.38888889  0.36111111  0.75000000       0.006
   0.37500000  0.37500000  0.75000000       0.006
   0.37500000  0.37500000  0.75000000       0.006
   0.36000000  0.36000000  0.72000000       0.006
   0.34500000  0.34500000  0.69000000       0.006
   0.33000000  0.33000000  0.66000000       0.006
   0.31500000  0.31500000  0.63000000       0.006
   0.30000000  0.30000000  0.60000000       0.006
   0.28500000  0.28500000  0.57000000       0.006
   0.27000000  0.27000000  0.54000000       0.006
   0.25500000  0.25500000  0.51000000       0.006
   0.24000000  0.24000000  0.48000000       0.006
   0.22500000  0.22500000  0.45000000       0.006
   0.21000000  0.21000000  0.42000000       0.006
   0.19500000  0.19500000  0.39000000       0.006
   0.18000000  0.18000000  0.36000000       0.006
   0.16500000  0.16500000  0.33000000       0.006
   0.15000000  0.15000000  0.30000000       0.006
   0.13500000  0.13500000  0.27000000       0.006
   0.12000000  0.12000000  0.24000000       0.006
   0.10500000  0.10500000  0.21000000       0.006
   0.09000000  0.09000000  0.18000000       0.006
   0.07500000  0.07500000  0.15000000       0.006
   0.06000000  0.06000000  0.12000000       0.006
   0.04500000  0.04500000  0.09000000       0.006
   0.03000000  0.03000000  0.06000000       0.006
   0.01500000  0.01500000  0.03000000       0.006
   0.00000000  0.00000000  0.00000000       0.006
   0.00000000  0.00000000  0.00000000       0.006
   0.02500000  0.02500000  0.02500000       0.006
   0.05000000  0.05000000  0.05000000       0.006
   0.07500000  0.07500000  0.07500000       0.006
   0.10000000  0.10000000  0.10000000       0.006
   0.12500000  0.12500000  0.12500000       0.006
   0.15000000  0.15000000  0.15000000       0.006
   0.17500000  0.17500000  0.17500000       0.006
   0.20000000  0.20000000  0.20000000       0.006
   0.22500000  0.22500000  0.22500000       0.006
   0.25000000  0.25000000  0.25000000       0.006
   0.27500000  0.27500000  0.27500000       0.006
   0.30000000  0.30000000  0.30000000       0.006
   0.32500000  0.32500000  0.32500000       0.006
   0.35000000  0.35000000  0.35000000       0.006
   0.37500000  0.37500000  0.37500000       0.006
   0.40000000  0.40000000  0.40000000       0.006
   0.42500000  0.42500000  0.42500000       0.006
   0.45000000  0.45000000  0.45000000       0.006
   0.47500000  0.47500000  0.47500000       0.006
   0.50000000  0.50000000  0.50000000       0.006
   0.50000000  0.50000000  0.50000000       0.006
   0.50833333  0.48333333  0.50833333       0.006
   0.51666667  0.46666667  0.51666667       0.006
   0.52500000  0.45000000  0.52500000       0.006
   0.53333333  0.43333333  0.53333333       0.006
   0.54166667  0.41666667  0.54166667       0.006
   0.55000000  0.40000000  0.55000000       0.006
   0.55833333  0.38333333  0.55833333       0.006
   0.56666667  0.36666667  0.56666667       0.006
   0.57500000  0.35000000  0.57500000       0.006
   0.58333333  0.33333333  0.58333333       0.006
   0.59166667  0.31666667  0.59166667       0.006
   0.60000000  0.30000000  0.60000000       0.006
   0.60833333  0.28333333  0.60833333       0.006
   0.61666667  0.26666667  0.61666667       0.006
   0.62500000  0.25000000  0.62500000       0.006
   0.62500000  0.25000000  0.62500000       0.006
   0.61111111  0.25000000  0.63888889       0.006
   0.59722222  0.25000000  0.65277778       0.006
   0.58333333  0.25000000  0.66666667       0.006
   0.56944444  0.25000000  0.68055556       0.006
   0.55555556  0.25000000  0.69444444       0.006
   0.54166667  0.25000000  0.70833333       0.006
   0.52777778  0.25000000  0.72222222       0.006
   0.51388889  0.25000000  0.73611111       0.006
   0.50000000  0.25000000  0.75000000       0.006
   0.50000000  0.25000000  0.75000000       0.006
   0.50000000  0.26470588  0.73529412       0.006
   0.50000000  0.27941176  0.72058824       0.006
   0.50000000  0.29411765  0.70588235       0.006
   0.50000000  0.30882353  0.69117647       0.006
   0.50000000  0.32352941  0.67647059       0.006
   0.50000000  0.33823529  0.66176471       0.006
   0.50000000  0.35294118  0.64705882       0.006
   0.50000000  0.36764706  0.63235294       0.006
   0.50000000  0.38235294  0.61764706       0.006
   0.50000000  0.39705882  0.60294118       0.006
   0.50000000  0.41176471  0.58823529       0.006
   0.50000000  0.42647059  0.57352941       0.006
   0.50000000  0.44117647  0.55882353       0.006
   0.50000000  0.45588235  0.54411765       0.006
   0.50000000  0.47058824  0.52941176       0.006
   0.50000000  0.48529412  0.51470588       0.006
   0.50000000  0.50000000  0.50000000       0.006
   0.50000000  0.50000000  0.50000000       0.006
   0.49166667  0.49166667  0.51666667       0.006
   0.48333333  0.48333333  0.53333333       0.006
   0.47500000  0.47500000  0.55000000       0.006
   0.46666667  0.46666667  0.56666667       0.006
   0.45833333  0.45833333  0.58333333       0.006
   0.45000000  0.45000000  0.60000000       0.006
   0.44166667  0.44166667  0.61666667       0.006
   0.43333333  0.43333333  0.63333333       0.006
   0.42500000  0.42500000  0.65000000       0.006
   0.41666667  0.41666667  0.66666667       0.006
   0.40833333  0.40833333  0.68333333       0.006
   0.40000000  0.40000000  0.70000000       0.006
   0.39166667  0.39166667  0.71666667       0.006
   0.38333333  0.38333333  0.73333333       0.006
   0.37500000  0.37500000  0.75000000       0.006
   0.62500000  0.25000000  0.62500000       0.006
   0.61111111  0.22222222  0.61111111       0.006
   0.59722222  0.19444444  0.59722222       0.006
   0.58333333  0.16666667  0.58333333       0.006
   0.56944444  0.13888889  0.56944444       0.006
   0.55555556  0.11111111  0.55555556       0.006
   0.54166667  0.08333333  0.54166667       0.006
   0.52777778  0.05555556  0.52777778       0.006
   0.51388889  0.02777778  0.51388889       0.006
   0.50000000  0.00000000  0.50000000       0.006
 
 position of ions in fractional coordinates (direct lattice) 
   0.00000000  0.00000000  0.00000000
   0.75000000  0.50000000  0.75000000
 
 position of ions in cartesian coordinates  (Angst):
   0.00000000  0.00000000  0.00000000
   3.86748400  0.00000175  2.36834100
 


--------------------------------------------------------------------------------------------------------


 k-point  1 :   0.0000 0.0000 0.0000  plane waves:    1067
 k-point  2 :   0.0217 0.0000 0.0217  plane waves:    1079
 k-point  3 :   0.0435 0.0000 0.0435  plane waves:    1087
 k-point  4 :   0.0652 0.0000 0.0652  plane waves:    1087
 k-point  5 :   0.0870 0.0000 0.0870  plane waves:    1098
 k-point  6 :   0.1087 0.0000 0.1087  plane waves:    1102
 k-point  7 :   0.1304 0.0000 0.1304  plane waves:    1110
 k-point  8 :   0.1522 0.0000 0.1522  plane waves:    1106
 k-point  9 :   0.1739 0.0000 0.1739  plane waves:    1094
 k-point 10 :   0.1957 0.0000 0.1957  plane waves:    1102
 k-point 11 :   0.2174 0.0000 0.2174  plane waves:    1098
 k-point 12 :   0.2391 0.0000 0.2391  plane waves:    1094
 k-point 13 :   0.2609 0.0000 0.2609  plane waves:    1094
 k-point 14 :   0.2826 0.0000 0.2826  plane waves:    1094
 k-point 15 :   0.3043 0.0000 0.3043  plane waves:    1094
 k-point 16 :   0.3261 0.0000 0.3261  plane waves:    1098
 k-point 17 :   0.3478 0.0000 0.3478  plane waves:    1094
 k-point 18 :   0.3696 0.0000 0.3696  plane waves:    1094
 k-point 19 :   0.3913 0.0000 0.3913  plane waves:    1094
 k-point 20 :   0.4130 0.0000 0.4130  plane waves:    1094
 k-point 21 :   0.4348 0.0000 0.4348  plane waves:    1102
 k-point 22 :   0.4565 0.0000 0.4565  plane waves:    1102
 k-point 23 :   0.4783 0.0000 0.4783  plane waves:    1106
 k-point 24 :   0.5000 0.0000 0.5000  plane waves:    1106
 k-point 25 :   0.5000 0.0000 0.5000  plane waves:    1106
 k-point 26 :   0.5000 0.0208 0.5208  plane waves:    1106
 k-point 27 :   0.5000 0.0417 0.5417  plane waves:    1109
 k-point 28 :   0.5000 0.0625 0.5625  plane waves:    1109
 k-point 29 :   0.5000 0.0833 0.5833  plane waves:    1105
 k-point 30 :   0.5000 0.1042 0.6042  plane waves:    1105
 k-point 31 :   0.5000 0.1250 0.6250  plane waves:    1099
 k-point 32 :   0.5000 0.1458 0.6458  plane waves:    1102
 k-point 33 :   0.5000 0.1667 0.6667  plane waves:    1098
 k-point 34 :   0.5000 0.1875 0.6875  plane waves:    1100
 k-point 35 :   0.5000 0.2083 0.7083  plane waves:    1103
 k-point 36 :   0.5000 0.2292 0.7292  plane waves:    1103
 k-point 37 :   0.5000 0.2500 0.7500  plane waves:    1102
 k-point 38 :   0.5000 0.2500 0.7500  plane waves:    1102
 k-point 39 :   0.4861 0.2639 0.7500  plane waves:    1100
 k-point 40 :   0.4722 0.2778 0.7500  plane waves:    1096
 k-point 41 :   0.4583 0.2917 0.7500  plane waves:    1096
 k-point 42 :   0.4444 0.3056 0.7500  plane waves:    1095
 k-point 43 :   0.4306 0.3194 0.7500  plane waves:    1091
 k-point 44 :   0.4167 0.3333 0.7500  plane waves:    1091
 k-point 45 :   0.4028 0.3472 0.7500  plane waves:    1090
 k-point 46 :   0.3889 0.3611 0.7500  plane waves:    1092
 k-point 47 :   0.3750 0.3750 0.7500  plane waves:    1091
 k-point 48 :   0.3750 0.3750 0.7500  plane waves:    1091
 k-point 49 :   0.3600 0.3600 0.7200  plane waves:    1091
 k-point 50 :   0.3450 0.3450 0.6900  plane waves:    1093
 k-point 51 :   0.3300 0.3300 0.6600  plane waves:    1091
 k-point 52 :   0.3150 0.3150 0.6300  plane waves:    1099
 k-point 53 :   0.3000 0.3000 0.6000  plane waves:    1100
 k-point 54 :   0.2850 0.2850 0.5700  plane waves:    1099
 k-point 55 :   0.2700 0.2700 0.5400  plane waves:    1096
 k-point 56 :   0.2550 0.2550 0.5100  plane waves:    1102
 k-point 57 :   0.2400 0.2400 0.4800  plane waves:    1104
 k-point 58 :   0.2250 0.2250 0.4500  plane waves:    1105
 k-point 59 :   0.2100 0.2100 0.4200  plane waves:    1106
 k-point 60 :   0.1950 0.1950 0.3900  plane waves:    1106
 k-point 61 :   0.1800 0.1800 0.3600  plane waves:    1105
 k-point 62 :   0.1650 0.1650 0.3300  plane waves:    1109
 k-point 63 :   0.1500 0.1500 0.3000  plane waves:    1103
 k-point 64 :   0.1350 0.1350 0.2700  plane waves:    1104
 k-point 65 :   0.1200 0.1200 0.2400  plane waves:    1104
 k-point 66 :   0.1050 0.1050 0.2100  plane waves:    1104
 k-point 67 :   0.0900 0.0900 0.1800  plane waves:    1099
 k-point 68 :   0.0750 0.0750 0.1500  plane waves:    1097
 k-point 69 :   0.0600 0.0600 0.1200  plane waves:    1095
 k-point 70 :   0.0450 0.0450 0.0900  plane waves:    1100
 k-point 71 :   0.0300 0.0300 0.0600  plane waves:    1095
 k-point 72 :   0.0150 0.0150 0.0300  plane waves:    1089
 k-point 73 :   0.0000 0.0000 0.0000  plane waves:    1067
 k-point 74 :   0.0000 0.0000 0.0000  plane waves:    1067
 k-point 75 :   0.0250 0.0250 0.0250  plane waves:    1091
 k-point 76 :   0.0500 0.0500 0.0500  plane waves:    1095
 k-point 77 :   0.0750 0.0750 0.0750  plane waves:    1099
 k-point 78 :   0.1000 0.1000 0.1000  plane waves:    1109
 k-point 79 :   0.1250 0.1250 0.1250  plane waves:    1107
 k-point 80 :   0.1500 0.1500 0.1500  plane waves:    1103
 k-point 81 :   0.1750 0.1750 0.1750  plane waves:    1093
 k-point 82 :   0.2000 0.2000 0.2000  plane waves:    1093
 k-point 83 :   0.2250 0.2250 0.2250  plane waves:    1095
 k-point 84 :   0.2500 0.2500 0.2500  plane waves:    1097
 k-point 85 :   0.2750 0.2750 0.2750  plane waves:    1117
 k-point 86 :   0.3000 0.3000 0.3000  plane waves:    1113
 k-point 87 :   0.3250 0.3250 0.3250  plane waves:    1113
 k-point 88 :   0.3500 0.3500 0.3500  plane waves:    1123
 k-point 89 :   0.3750 0.3750 0.3750  plane waves:    1121
 k-point 90 :   0.4000 0.4000 0.4000  plane waves:    1105
 k-point 91 :   0.4250 0.4250 0.4250  plane waves:    1110
 k-point 92 :   0.4500 0.4500 0.4500  plane waves:    1110
 k-point 93 :   0.4750 0.4750 0.4750  plane waves:    1106
 k-point 94 :   0.5000 0.5000 0.5000  plane waves:    1106
 k-point 95 :   0.5000 0.5000 0.5000  plane waves:    1106
 k-point 96 :   0.5083 0.4833 0.5083  plane waves:    1106
 k-point 97 :   0.5167 0.4667 0.5167  plane waves:    1106
 k-point 98 :   0.5250 0.4500 0.5250  plane waves:    1112
 k-point 99 :   0.5333 0.4333 0.5333  plane waves:    1111
 k-point ** :   0.5417 0.4167 0.5417  plane waves:    1112
 k-point ** :   0.5500 0.4000 0.5500  plane waves:    1112
 k-point ** :   0.5583 0.3833 0.5583  plane waves:    1113
 k-point ** :   0.5667 0.3667 0.5667  plane waves:    1108
 k-point ** :   0.5750 0.3500 0.5750  plane waves:    1110
 k-point ** :   0.5833 0.3333 0.5833  plane waves:    1108
 k-point ** :   0.5917 0.3167 0.5917  plane waves:    1110
 k-point ** :   0.6000 0.3000 0.6000  plane waves:    1110
 k-point ** :   0.6083 0.2833 0.6083  plane waves:    1106
 k-point ** :   0.6167 0.2667 0.6167  plane waves:    1106
 k-point ** :   0.6250 0.2500 0.6250  plane waves:    1102
 k-point ** :   0.6250 0.2500 0.6250  plane waves:    1102
 k-point ** :   0.6111 0.2500 0.6389  plane waves:    1104
 k-point ** :   0.5972 0.2500 0.6528  plane waves:    1105
 k-point ** :   0.5833 0.2500 0.6667  plane waves:    1106
 k-point ** :   0.5694 0.2500 0.6806  plane waves:    1107
 k-point ** :   0.5556 0.2500 0.6944  plane waves:    1110
 k-point ** :   0.5417 0.2500 0.7083  plane waves:    1108
 k-point ** :   0.5278 0.2500 0.7222  plane waves:    1106
 k-point ** :   0.5139 0.2500 0.7361  plane waves:    1104
 k-point ** :   0.5000 0.2500 0.7500  plane waves:    1102
 k-point ** :   0.5000 0.2500 0.7500  plane waves:    1102
 k-point ** :   0.5000 0.2647 0.7353  plane waves:    1102
 k-point ** :   0.5000 0.2794 0.7206  plane waves:    1104
 k-point ** :   0.5000 0.2941 0.7059  plane waves:    1102
 k-point ** :   0.5000 0.3088 0.6912  plane waves:    1102
 k-point ** :   0.5000 0.3235 0.6765  plane waves:    1104
 k-point ** :   0.5000 0.3382 0.6618  plane waves:    1104
 k-point ** :   0.5000 0.3529 0.6471  plane waves:    1104
 k-point ** :   0.5000 0.3676 0.6324  plane waves:    1104
 k-point ** :   0.5000 0.3824 0.6176  plane waves:    1106
 k-point ** :   0.5000 0.3971 0.6029  plane waves:    1106
 k-point ** :   0.5000 0.4118 0.5882  plane waves:    1102
 k-point ** :   0.5000 0.4265 0.5735  plane waves:    1105
 k-point ** :   0.5000 0.4412 0.5588  plane waves:    1105
 k-point ** :   0.5000 0.4559 0.5441  plane waves:    1106
 k-point ** :   0.5000 0.4706 0.5294  plane waves:    1106
 k-point ** :   0.5000 0.4853 0.5147  plane waves:    1106
 k-point ** :   0.5000 0.5000 0.5000  plane waves:    1106
 k-point ** :   0.5000 0.5000 0.5000  plane waves:    1106
 k-point ** :   0.4917 0.4917 0.5167  plane waves:    1106
 k-point ** :   0.4833 0.4833 0.5333  plane waves:    1106
 k-point ** :   0.4750 0.4750 0.5500  plane waves:    1103
 k-point ** :   0.4667 0.4667 0.5667  plane waves:    1104
 k-point ** :   0.4583 0.4583 0.5833  plane waves:    1097
 k-point ** :   0.4500 0.4500 0.6000  plane waves:    1097
 k-point ** :   0.4417 0.4417 0.6167  plane waves:    1097
 k-point ** :   0.4333 0.4333 0.6333  plane waves:    1095
 k-point ** :   0.4250 0.4250 0.6500  plane waves:    1099
 k-point ** :   0.4167 0.4167 0.6667  plane waves:    1099
 k-point ** :   0.4083 0.4083 0.6833  plane waves:    1094
 k-point ** :   0.4000 0.4000 0.7000  plane waves:    1100
 k-point ** :   0.3917 0.3917 0.7167  plane waves:    1092
 k-point ** :   0.3833 0.3833 0.7333  plane waves:    1093
 k-point ** :   0.3750 0.3750 0.7500  plane waves:    1091
 k-point ** :   0.6250 0.2500 0.6250  plane waves:    1102
 k-point ** :   0.6111 0.2222 0.6111  plane waves:    1104
 k-point ** :   0.5972 0.1944 0.5972  plane waves:    1099
 k-point ** :   0.5833 0.1667 0.5833  plane waves:    1099
 k-point ** :   0.5694 0.1389 0.5694  plane waves:    1099
 k-point ** :   0.5556 0.1111 0.5556  plane waves:    1096
 k-point ** :   0.5417 0.0833 0.5417  plane waves:    1102
 k-point ** :   0.5278 0.0556 0.5278  plane waves:    1110
 k-point ** :   0.5139 0.0278 0.5139  plane waves:    1106
 k-point ** :   0.5000 0.0000 0.5000  plane waves:    1106

 maximum and minimum number of plane-waves per node :      1123     1067

 maximum number of plane-waves:      1123
 maximum index in each direction: 
   IXMAX=    7   IYMAX=    7   IZMAX=    7
   IXMIN=   -7   IYMIN=   -7   IZMIN=   -7

 NGX is ok and might be reduce to  30
 NGY is ok and might be reduce to  30
 NGZ is ok and might be reduce to  30

 serial   3D FFT for wavefunctions
 parallel 3D FFT for charge:
    minimum data exchange during FFTs selected (reduces bandwidth)


 total amount of memory used by VASP on root node    38863. kBytes
========================================================================

   base      :      30000. kBytes
   nonlr-proj:        832. kBytes
   fftplans  :        365. kBytes
   grid      :       1447. kBytes
   one-center:          6. kBytes
   wavefun   :       6213. kBytes
 
     INWAV:  cpu time    0.0000: real time    0.0001
 initial charge density was supplied:
 number of electron       8.0000001 magnetization 
 keeping initial charge density in first step


--------------------------------------------------------------------------------------------------------


 Maximum index for non-local projection operator         4753
 Maximum index for augmentation-charges          847 (set IRDMAX)


--------------------------------------------------------------------------------------------------------


 First call to EWALD:  gamma=   0.514
 Maximum number of real-space cells 3x 3x 3
 Maximum number of reciprocal cells 3x 3x 3

 FEWALD executed in parallel
    FEWALD:  cpu time    0.0030: real time    0.0030


----------------------------------------- Iteration    1(   1)  ---------------------------------------


    POTLOK:  cpu time    0.0680: real time    0.0677
    SETDIJ:  cpu time    0.0040: real time    0.0051
     EDDAV:  cpu time   17.7793: real time   17.8060
       DOS:  cpu time    0.0080: real time    0.0124
    --------------------------------------------
      LOOP:  cpu time   17.8593: real time   17.8932

 eigenvalue-minimisations  : 21024
 total energy-change (2. order) : 0.4671546E+01  (-0.3133663E+03)
 number of electron       8.0000001 magnetization 
 augmentation part        8.0000001 magnetization 

 Free energy of the ion-electron system (eV)
  ---------------------------------------------------
  alpha Z        PSCENC =         3.29187312
  Ewald energy   TEWEN  =      -226.91498689
  -Hartree energ DENC   =       -15.19238167
  -exchange      EXHF   =         0.00000000
  -V(xc)+E(xc)   XCENC  =       -18.05989530
  PAW double counting   =        73.61108056      -38.63077485
  entropy T*S    EENTRO =        -0.00000012
  eigenvalues    EBANDS =        20.43392860
  atomic energy  EATOM  =       206.13270273
  Solvation  Ediel_sol  =         0.00000000
  ---------------------------------------------------
  free energy    TOTEN  =         4.67154618 eV

  energy without entropy =        4.67154631  energy(sigma->0) =        4.67154624


--------------------------------------------------------------------------------------------------------




----------------------------------------- Iteration    1(   2)  ---------------------------------------


     EDDAV:  cpu time   25.5791: real time   25.5817
       DOS:  cpu time    0.0050: real time    0.0052
    --------------------------------------------
      LOOP:  cpu time   25.5851: real time   25.5882

 eigenvalue-minimisations  : 30208
 total energy-change (2. order) :-0.1510475E+02  (-0.1470874E+02)
 number of electron       8.0000001 magnetization 
 augmentation part        8.0000001 magnetization 

 Free energy of the ion-electron system (eV)
  ---------------------------------------------------
  alpha Z        PSCENC =         3.29187312
  Ewald energy   TEWEN  =      -226.91498689
  -Hartree energ DENC   =       -15.19238167
  -exchange      EXHF   =         0.00000000
  -V(xc)+E(xc)   XCENC  =       -18.05989530
  PAW double counting   =        73.61108056      -38.63077485
  entropy T*S    EENTRO =         0.00000000
  eigenvalues    EBANDS =         5.32917775
  atomic energy  EATOM  =       206.13270273
  Solvation  Ediel_sol  =         0.00000000
  ---------------------------------------------------
  free energy    TOTEN  =       -10.43320455 eV

  energy without entropy =      -10.43320455  energy(sigma->0) =      -10.43320455


--------------------------------------------------------------------------------------------------------




----------------------------------------- Iteration    1(   3)  ---------------------------------------


     EDDAV:  cpu time   19.2771: real time   19.2801
       DOS:  cpu time    0.0050: real time    0.0050
    --------------------------------------------
      LOOP:  cpu time   19.2831: real time   19.2859

 eigenvalue-minimisations  : 22912
 total energy-change (2. order) :-0.1387960E+00  (-0.1387721E+00)
 number of electron       8.0000001 magnetization 
 augmentation part        8.0000001 magnetization 

 Free energy of the ion-electron system (eV)
  ---------------------------------------------------
  alpha Z        PSCENC =         3.29187312
  Ewald energy   TEWEN  =      -226.91498689
  -Hartree energ DENC   =       -15.19238167
  -exchange      EXHF   =         0.00000000
  -V(xc)+E(xc)   XCENC  =       -18.05989530
  PAW double counting   =        73.61108056      -38.63077485
  entropy T*S    EENTRO =         0.00000000
  eigenvalues    EBANDS =         5.19038179
  atomic energy  EATOM  =       206.13270273
  Solvation  Ediel_sol  =         0.00000000
  ---------------------------------------------------
  free energy    TOTEN  =       -10.57200051 eV

  energy without entropy =      -10.57200051  energy(sigma->0) =      -10.57200051


--------------------------------------------------------------------------------------------------------




----------------------------------------- Iteration    1(   4)  ---------------------------------------


     EDDAV:  cpu time   25.5561: real time   25.5585
       DOS:  cpu time    0.0050: real time    0.0049
    --------------------------------------------
      LOOP:  cpu time   25.5611: real time   25.5651

 eigenvalue-minimisations  : 30016
 total energy-change (2. order) :-0.7847475E-04  (-0.7847441E-04)
 number of electron       8.0000001 magnetization 
 augmentation part        8.0000001 magnetization 

 Free energy of the ion-electron system (eV)
  ---------------------------------------------------
  alpha Z        PSCENC =         3.29187312
  Ewald energy   TEWEN  =      -226.91498689
  -Hartree energ DENC   =       -15.19238167
  -exchange      EXHF   =         0.00000000
  -V(xc)+E(xc)   XCENC  =       -18.05989530
  PAW double counting   =        73.61108056      -38.63077485
  entropy T*S    EENTRO =         0.00000000
  eigenvalues    EBANDS =         5.19030331
  atomic energy  EATOM  =       206.13270273
  Solvation  Ediel_sol  =         0.00000000
  ---------------------------------------------------
  free energy    TOTEN  =       -10.57207898 eV

  energy without entropy =      -10.57207898  energy(sigma->0) =      -10.57207898


--------------------------------------------------------------------------------------------------------




----------------------------------------- Iteration    1(   5)  ---------------------------------------


     EDDAV:  cpu time   16.1265: real time   16.1278
       DOS:  cpu time    0.0050: real time    0.0050
    --------------------------------------------
      LOOP:  cpu time   16.1325: real time   16.1339

 eigenvalue-minimisations  : 18016
 total energy-change (2. order) :-0.9503503E-07  (-0.9502360E-07)
 number of electron       8.0000001 magnetization 
 augmentation part        8.0000001 magnetization 

 Free energy of the ion-electron system (eV)
  ---------------------------------------------------
  alpha Z        PSCENC =         3.29187312
  Ewald energy   TEWEN  =      -226.91498689
  -Hartree energ DENC   =       -15.19238167
  -exchange      EXHF   =         0.00000000
  -V(xc)+E(xc)   XCENC  =       -18.05989530
  PAW double counting   =        73.61108056      -38.63077485
  entropy T*S    EENTRO =         0.00000000
  eigenvalues    EBANDS =         5.19030322
  atomic energy  EATOM  =       206.13270273
  Solvation  Ediel_sol  =         0.00000000
  ---------------------------------------------------
  free energy    TOTEN  =       -10.57207908 eV

  energy without entropy =      -10.57207908  energy(sigma->0) =      -10.57207908


--------------------------------------------------------------------------------------------------------




----------------------------------------- Iteration    1(   6)  ---------------------------------------


     EDDAV:  cpu time   22.1646: real time   22.1669
       DOS:  cpu time    0.0060: real time    0.0053
    --------------------------------------------
      LOOP:  cpu time   22.1716: real time   22.1731

 eigenvalue-minimisations  : 24544
 total energy-change (2. order) :-0.3059426E-08  (-0.3073982E-08)
 number of electron       8.0000001 magnetization 
 augmentation part        8.0000001 magnetization 

 Free energy of the ion-electron system (eV)
  ---------------------------------------------------
  alpha Z        PSCENC =         3.29187312
  Ewald energy   TEWEN  =      -226.91498689
  -Hartree energ DENC   =       -15.19238167
  -exchange      EXHF   =         0.00000000
  -V(xc)+E(xc)   XCENC  =       -18.05989530
  PAW double counting   =        73.61108056      -38.63077485
  entropy T*S    EENTRO =         0.00000000
  eigenvalues    EBANDS =         5.19030321
  atomic energy  EATOM  =       206.13270273
  Solvation  Ediel_sol  =         0.00000000
  ---------------------------------------------------
  free energy    TOTEN  =       -10.57207908 eV

  energy without entropy =      -10.57207908  energy(sigma->0) =      -10.57207908


--------------------------------------------------------------------------------------------------------




 average (electrostatic) potential at core
  the test charge radii are     0.9892
  (the norm of the test charge is              1.0000)
       1 -83.4837       2 -83.4837
 
 
 
 E-fermi :   5.6782     XC(G=0):  -9.3250     alpha+bet :-11.7271


 k-point     1 :       0.0000    0.0000    0.0000
  band No.  band energies     occupation 
      1      -6.1985      2.00000
      2       5.6142      2.00000
      3       5.6142      2.00000
      4       5.6142      2.00000
      5       8.1703      0.00000
      6       8.1703      0.00000
      7       8.1703      0.00000
      8       8.7436      0.00000
      9      13.3223      0.00000
     10      13.3223      0.00000
     11      13.4883      0.00000
     12      16.7939      0.00000
     13      16.7939      0.00000
     14      16.7939      0.00000
     15      20.8824      0.00000
     16      28.4633      0.00000
     17      28.4633      0.00000
     18      28.4633      0.00000
     19      29.5439      0.00000
     20      29.5439      0.00000
     21      30.9889      0.00000
     22      30.9889      0.00000
     23      30.9889      0.00000
     24      34.5197      0.00000
     25      34.5197      0.00000
     26      34.5197      0.00000
     27      40.1009      0.00000
     28      40.1009      0.00000
     29      40.1009      0.00000
     30      43.4022      0.00000
     31      43.8763      0.00000
     32      43.8764      0.00000
     33      45.7696      0.00000
     34      45.7697      0.00000
     35      47.2618      0.00000
     36      47.2618      0.00000
     37      47.2618      0.00000
     38      49.0115      0.00000
     39      49.0115      0.00000
     40      49.0115      0.00000
     41      49.4687      0.00000
     42      50.0780      0.00000
     43      50.0781      0.00000
     44      50.0781      0.00000
     45      50.0799      0.00000
     46      50.0799      0.00000
     47      50.0800      0.00000
     48      51.5005      0.00000
     49      51.5005      0.00000
     50      51.5005      0.00000
     51      55.3486      0.00000
     52      56.5198      0.00000
     53      56.5198      0.00000
     54      56.5198      0.00000
     55      56.8035      0.00000
     56      56.8035      0.00000
     57      56.8035      0.00000
     58      61.6054      0.00000
     59      62.4602      0.00000
     60      71.2451      0.00000
     61      71.2451      0.00000
     62      74.2559      0.00000
     63      74.2560      0.00000
     64      74.2560      0.00000

 k-point     2 :       0.0217    0.0000    0.0217
  band No.  band energies     occupation 
      1      -6.1904      2.00000
      2       5.5555      2.00000
      3       5.5796      2.00000
      4       5.5796      2.00000
      5       8.1501      0.00000
      6       8.2149      0.00000
      7       8.2149      0.00000
      8       8.8011      0.00000
      9      13.2556      0.00000
     10      13.3313      0.00000
     11      13.5247      0.00000
     12      16.8081      0.00000
     13      16.8081      0.00000
     14      16.8407      0.00000
     15      20.9418      0.00000
     16      28.3290      0.00000
     17      28.3290      0.00000
     18      28.4737      0.00000
     19      29.4373      0.00000
     20      29.4644      0.00000
     21      31.0446      0.00000
     22      31.0790      0.00000
     23      31.0790      0.00000
     24      34.5821      0.00000
     25      34.5821      0.00000
     26      34.6314      0.00000
     27      40.0418      0.00000
     28      40.0418      0.00000
     29      40.0424      0.00000
     30      43.4453      0.00000
     31      43.7310      0.00000
     32      43.8548      0.00000
     33      45.5481      0.00000
     34      45.7576      0.00000
     35      47.2533      0.00000
     36      47.2889      0.00000
     37      47.2889      0.00000
     38      48.7917      0.00000
     39      48.7918      0.00000
     40      49.0378      0.00000
     41      49.7251      0.00000
     42      49.7358      0.00000
     43      49.7358      0.00000
     44      50.1191      0.00000
     45      50.1891      0.00000
     46      50.2632      0.00000
     47      50.2632      0.00000
     48      51.5433      0.00000
     49      51.9383      0.00000
     50      51.9383      0.00000
     51      55.1297      0.00000
     52      55.9151      0.00000
     53      55.9151      0.00000
     54      56.7514      0.00000
     55      56.7637      0.00000
     56      57.4548      0.00000
     57      57.4548      0.00000
     58      61.6990      0.00000
     59      62.5148      0.00000
     60      70.7942      0.00000
     61      71.2510      0.00000
     62      74.2134      0.00000
     63      74.2135      0.00000
     64      74.4215      0.00000

 k-point     3 :       0.0435    0.0000    0.0435
  band No.  band energies     occupation 
      1      -6.1660      2.00000
      2       5.3913      2.00000
      3       5.4826      2.00000
      4       5.4826      2.00000
      5       8.0913      0.00000
      6       8.3419      0.00000
      7       8.3419      0.00000
      8       8.9601      0.00000
      9      13.0720      0.00000
     10      13.3584      0.00000
     11      13.6319      0.00000
     12      16.8507      0.00000
     13      16.8507      0.00000
     14      16.9677      0.00000
     15      21.1182      0.00000
     16      27.9805      0.00000
     17      27.9805      0.00000
     18      28.5049      0.00000
     19      29.1431      0.00000
     20      29.2560      0.00000
     21      31.1819      0.00000
     22      31.2947      0.00000
     23      31.2947      0.00000
     24      34.7695      0.00000
     25      34.7695      0.00000
     26      34.9404      0.00000
     27      39.8673      0.00000
     28      39.8673      0.00000
     29      39.8734      0.00000
     30      43.3284      0.00000
     31      43.5547      0.00000
     32      43.7921      0.00000
     33      45.0329      0.00000
     34      45.7236      0.00000
     35      47.2236      0.00000
     36      47.3602      0.00000
     37      47.3602      0.00000
     38      48.2844      0.00000
     39      48.2844      0.00000
     40      49.1068      0.00000
     41      49.2156      0.00000
     42      49.2157      0.00000
     43      50.2347      0.00000
     44      50.3678      0.00000
     45      50.4892      0.00000
     46      50.6440      0.00000
     47      50.6440      0.00000
     48      51.6701      0.00000
     49      52.7684      0.00000
     50      52.7684      0.00000
     51      54.7070      0.00000
     52      55.2370      0.00000
     53      55.2370      0.00000
     54      56.6100      0.00000
     55      57.2676      0.00000
     56      58.2738      0.00000
     57      58.2739      0.00000
     58      61.9660      0.00000
     59      62.6759      0.00000
     60      69.7646      0.00000
     61      71.2684      0.00000
     62      74.0598      0.00000
     63      74.0598      0.00000
     64      74.6727      0.00000

 k-point     4 :       0.0652    0.0000    0.0652
  band No.  band energies     occupation 
      1      -6.1254      2.00000
      2       5.1484      2.00000
      3       5.3390      2.00000
      4       5.3390      2.00000
      5       7.9989      0.00000
      6       8.5354      0.00000
      7       8.5355      0.00000
      8       9.1882      0.00000
      9      12.8108      0.00000
     10      13.4035      0.00000
     11      13.8048      0.00000
     12      16.9216      0.00000
     13      16.9217      0.00000
     14      17.1467      0.00000
     15      21.4057      0.00000
     16      27.5086      0.00000
     17      27.5086      0.00000
     18      28.5576      0.00000
     19      28.7156      0.00000
     20      28.9676      0.00000
     21      31.3519      0.00000
     22      31.5466      0.00000
     23      31.5466      0.00000
     24      35.0800      0.00000
     25      35.0800      0.00000
     26      35.3908      0.00000
     27      39.5857      0.00000
     28      39.5857      0.00000
     29      39.6087      0.00000
     30      42.7397      0.00000
     31      43.6242      0.00000
     32      43.6927      0.00000
     33      44.5051      0.00000
     34      45.6746      0.00000
     35      47.1669      0.00000
     36      47.4147      0.00000
     37      47.4147      0.00000
     38      47.6648      0.00000
     39      47.6648      0.00000
     40      48.8161      0.00000
     41      48.8161      0.00000
     42      49.2142      0.00000
     43      50.4221      0.00000
     44      50.8981      0.00000
     45      51.0875      0.00000
     46      51.0876      0.00000
     47      51.2050      0.00000
     48      51.8758      0.00000
     49      53.7009      0.00000
     50      53.7010      0.00000
     51      54.2678      0.00000
     52      54.6074      0.00000
     53      54.6074      0.00000
     54      56.4152      0.00000
     55      57.8648      0.00000
     56      59.1424      0.00000
     57      59.1424      0.00000
     58      62.3744      0.00000
     59      62.9369      0.00000
     60      68.5074      0.00000
     61      71.2967      0.00000
     62      73.7242      0.00000
     63      73.7243      0.00000
     64      74.8368      0.00000

 k-point     5 :       0.0870    0.0000    0.0870
  band No.  band energies     occupation 
      1      -6.0687      2.00000
      2       4.8527      2.00000
      3       5.1656      2.00000
      4       5.1656      2.00000
      5       7.8798      0.00000
      6       8.7786      0.00000
      7       8.7786      0.00000
      8       9.4469      0.00000
      9      12.5188      0.00000
     10      13.4666      0.00000
     11      14.0362      0.00000
     12      17.0206      0.00000
     13      17.0207      0.00000
     14      17.3524      0.00000
     15      21.7941      0.00000
     16      26.9734      0.00000
     17      26.9734      0.00000
     18      28.2048      0.00000
     19      28.6316      0.00000
     20      28.6326      0.00000
     21      31.5221      0.00000
     22      31.7828      0.00000
     23      31.7828      0.00000
     24      35.5041      0.00000
     25      35.5041      0.00000
     26      35.9292      0.00000
     27      39.2083      0.00000
     28      39.2084      0.00000
     29      39.2611      0.00000
     30      42.0301      0.00000
     31      43.3209      0.00000
     32      43.5633      0.00000
     33      44.3843      0.00000
     34      45.6202      0.00000
     35      46.8909      0.00000
     36      46.8909      0.00000
     37      47.0828      0.00000
     38      47.5269      0.00000
     39      47.5270      0.00000
     40      48.5812      0.00000
     41      48.5812      0.00000
     42      49.3574      0.00000
     43      50.6747      0.00000
     44      51.3088      0.00000
     45      51.5580      0.00000
     46      51.5580      0.00000
     47      52.1265      0.00000
     48      52.1537      0.00000
     49      53.8982      0.00000
     50      54.0314      0.00000
     51      54.0314      0.00000
     52      54.6820      0.00000
     53      54.6820      0.00000
     54      56.2108      0.00000
     55      58.5193      0.00000
     56      60.0566      0.00000
     57      60.0566      0.00000
     58      62.8882      0.00000
     59      63.2876      0.00000
     60      67.1674      0.00000
     61      71.3333      0.00000
     62      73.1624      0.00000
     63      73.1624      0.00000
     64      74.4794      0.00000

 k-point     6 :       0.1087    0.0000    0.1087
  band No.  band energies     occupation 
      1      -5.9958      2.00000
      2       4.5233      2.00000
      3       4.9756      2.00000
      4       4.9756      2.00000
      5       7.7413      0.00000
      6       9.0578      0.00000
      7       9.0578      0.00000
      8       9.6916      0.00000
      9      12.2478      0.00000
     10      13.5478      0.00000
     11      14.3183      0.00000
     12      17.1474      0.00000
     13      17.1474      0.00000
     14      17.5702      0.00000
     15      22.2694      0.00000
     16      26.4075      0.00000
     17      26.4075      0.00000
     18      27.6456      0.00000
     19      28.2657      0.00000
     20      28.7318      0.00000
     21      31.6748      0.00000
     22      31.9865      0.00000
     23      31.9865      0.00000
     24      36.0243      0.00000
     25      36.0243      0.00000
     26      36.5160      0.00000
     27      38.7489      0.00000
     28      38.7489      0.00000
     29      38.8383      0.00000
     30      41.2449      0.00000
     31      42.7470      0.00000
     32      43.4111      0.00000
     33      44.6052      0.00000
     34      45.5730      0.00000
     35      46.1981      0.00000
     36      46.1981      0.00000
     37      46.9744      0.00000
     38      47.4332      0.00000
     39      47.4332      0.00000
     40      48.5498      0.00000
     41      48.5498      0.00000
     42      49.5321      0.00000
     43      50.9851      0.00000
     44      51.5717      0.00000
     45      52.0328      0.00000
     46      52.0328      0.00000
     47      52.4963      0.00000
     48      53.0626      0.00000
     49      53.5399      0.00000
     50      53.5399      0.00000
     51      53.7159      0.00000
     52      55.6812      0.00000
     53      55.6812      0.00000
     54      56.0497      0.00000
     55      59.2227      0.00000
     56      61.0151      0.00000
     57      61.0151      0.00000
     58      63.4685      0.00000
     59      63.7169      0.00000
     60      65.8148      0.00000
     61      71.3769      0.00000
     62      72.4263      0.00000
     63      72.4264      0.00000
     64      73.5845      0.00000

 k-point     7 :       0.1304    0.0000    0.1304
  band No.  band energies     occupation 
      1      -5.9068      2.00000
      2       4.1724      2.00000
      3       4.7783      2.00000
      4       4.7783      2.00000
      5       7.5905      0.00000
      6       9.3634      0.00000
      7       9.3634      0.00000
      8       9.8629      0.00000
      9      12.0633      0.00000
     10      13.6469      0.00000
     11      14.6433      0.00000
     12      17.3012      0.00000
     13      17.3013      0.00000
     14      17.7949      0.00000
     15      22.8159      0.00000
     16      25.8290      0.00000
     17      25.8290      0.00000
     18      27.0598      0.00000
     19      27.8800      0.00000
     20      28.8574      0.00000
     21      31.7992      0.00000
     22      32.1585      0.00000
     23      32.1585      0.00000
     24      36.6161      0.00000
     25      36.6161      0.00000
     26      37.1227      0.00000
     27      38.2242      0.00000
     28      38.2242      0.00000
     29      38.3449      0.00000
     30      40.4133      0.00000
     31      42.1728      0.00000
     32      43.2429      0.00000
     33      44.9139      0.00000
     34      45.5286      0.00000
     35      45.5286      0.00000
     36      45.5465      0.00000
     37      46.8459      0.00000
     38      47.2276      0.00000
     39      47.2276      0.00000
     40      48.6762      0.00000
     41      48.6763      0.00000
     42      49.7339      0.00000
     43      51.3462      0.00000
     44      51.5398      0.00000
     45      52.4299      0.00000
     46      52.4299      0.00000
     47      52.8964      0.00000
     48      53.2151      0.00000
     49      53.2151      0.00000
     50      53.8460      0.00000
     51      53.9162      0.00000
     52      56.0266      0.00000
     53      56.6949      0.00000
     54      56.6949      0.00000
     55      59.9700      0.00000
     56      62.0161      0.00000
     57      62.0161      0.00000
     58      63.9161      0.00000
     59      64.2134      0.00000
     60      64.6598      0.00000
     61      71.4223      0.00000
     62      71.5961      0.00000
     63      71.5961      0.00000
     64      72.6486      0.00000

 k-point     8 :       0.1522    0.0000    0.1522
  band No.  band energies     occupation 
      1      -5.8019      2.00000
      2       3.8079      2.00000
      3       4.5801      2.00000
      4       4.5801      2.00000
      5       7.4335      0.00000
      6       9.6889      0.00000
      7       9.6889      0.00000
      8       9.8937      0.00000
      9      12.0369      0.00000
     10      13.7641      0.00000
     11      15.0044      0.00000
     12      17.4812      0.00000
     13      17.4812      0.00000
     14      18.0268      0.00000
     15      23.4169      0.00000
     16      25.2490      0.00000
     17      25.2490      0.00000
     18      26.4612      0.00000
     19      27.4816      0.00000
     20      29.0129      0.00000
     21      31.8867      0.00000
     22      32.3045      0.00000
     23      32.3045      0.00000
     24      37.2136      0.00000
     25      37.2136      0.00000
     26      37.6949      0.00000
     27      37.6949      0.00000
     28      37.7265      0.00000
     29      37.7873      0.00000
     30      39.5541      0.00000
     31      41.6639      0.00000
     32      43.0649      0.00000
     33      44.8956      0.00000
     34      44.8956      0.00000
     35      45.2481      0.00000
     36      45.5557      0.00000
     37      46.7012      0.00000
     38      46.9769      0.00000
     39      46.9769      0.00000
     40      48.8610      0.00000
     41      48.8610      0.00000
     42      49.9592      0.00000
     43      51.2542      0.00000
     44      51.7518      0.00000
     45      52.4445      0.00000
     46      52.4445      0.00000
     47      53.3480      0.00000
     48      53.3770      0.00000
     49      53.3770      0.00000
     50      54.2353      0.00000
     51      54.4860      0.00000
     52      56.3405      0.00000
     53      57.7152      0.00000
     54      57.7152      0.00000
     55      60.7542      0.00000
     56      62.9586      0.00000
     57      63.0566      0.00000
     58      63.0566      0.00000
     59      64.7669      0.00000
     60      64.9820      0.00000
     61      70.7217      0.00000
     62      70.7217      0.00000
     63      71.4628      0.00000
     64      71.6875      0.00000

 k-point     9 :       0.1739    0.0000    0.1739
  band No.  band energies     occupation 
      1      -5.6812      2.00000
      2       3.4345      2.00000
      3       4.3854      2.00000
      4       4.3854      2.00000
      5       7.2754      0.00000
      6       9.7641      0.00000
      7      10.0295      0.00000
      8      10.0295      0.00000
      9      12.1915      0.00000
     10      13.8992      0.00000
     11      15.3951      0.00000
     12      17.6855      0.00000
     13      17.6855      0.00000
     14      18.2685      0.00000
     15      24.0558      0.00000
     16      24.6754      0.00000
     17      24.6754      0.00000
     18      25.8583      0.00000
     19      27.0759      0.00000
     20      29.2033      0.00000
     21      31.9297      0.00000
     22      32.4286      0.00000
     23      32.4286      0.00000
     24      36.9514      0.00000
     25      36.9514      0.00000
     26      37.1780      0.00000
     27      38.0249      0.00000
     28      38.0249      0.00000
     29      38.3075      0.00000
     30      38.6796      0.00000
     31      41.2372      0.00000
     32      42.8821      0.00000
     33      44.3023      0.00000
     34      44.3023      0.00000
     35      45.5832      0.00000
     36      45.6170      0.00000
     37      46.5433      0.00000
     38      46.7185      0.00000
     39      46.7185      0.00000
     40      49.0344      0.00000
     41      49.0345      0.00000
     42      50.2073      0.00000
     43      50.8492      0.00000
     44      52.1963      0.00000
     45      52.2534      0.00000
     46      52.2534      0.00000
     47      53.8459      0.00000
     48      53.8708      0.00000
     49      53.8709      0.00000
     50      54.6698      0.00000
     51      54.7446      0.00000
     52      57.0831      0.00000
     53      58.7363      0.00000
     54      58.7363      0.00000
     55      61.5639      0.00000
     56      61.6843      0.00000
     57      64.1316      0.00000
     58      64.1316      0.00000
     59      65.3688      0.00000
     60      65.7075      0.00000
     61      69.8307      0.00000
     62      69.8307      0.00000
     63      70.7100      0.00000
     64      71.4872      0.00000

 k-point    10 :       0.1957    0.0000    0.1957
  band No.  band energies     occupation 
      1      -5.5448      2.00000
      2       3.0555      2.00000
      3       4.1970      2.00000
      4       4.1970      2.00000
      5       7.1202      0.00000
      6       9.5221      0.00000
      7      10.3822      0.00000
      8      10.3822      0.00000
      9      12.4811      0.00000
     10      14.0523      0.00000
     11      15.8096      0.00000
     12      17.9113      0.00000
     13      17.9113      0.00000
     14      18.5235      0.00000
     15      24.1151      0.00000
     16      24.1151      0.00000
     17      24.7160      0.00000
     18      25.2567      0.00000
     19      26.6677      0.00000
     20      29.4358      0.00000
     21      31.9195      0.00000
     22      32.5296      0.00000
     23      32.5296      0.00000
     24      36.3128      0.00000
     25      36.3129      0.00000
     26      36.5357      0.00000
     27      37.7985      0.00000
     28      38.7347      0.00000
     29      38.7347      0.00000
     30      38.8465      0.00000
     31      40.8938      0.00000
     32      42.6986      0.00000
     33      43.7488      0.00000
     34      43.7488      0.00000
     35      45.7474      0.00000
     36      45.9009      0.00000
     37      46.3743      0.00000
     38      46.4669      0.00000
     39      46.4670      0.00000
     40      49.1493      0.00000
     41      49.1493      0.00000
     42      50.4012      0.00000
     43      50.4807      0.00000
     44      52.1379      0.00000
     45      52.1379      0.00000
     46      52.6751      0.00000
     47      54.3860      0.00000
     48      54.4413      0.00000
     49      54.4413      0.00000
     50      54.6514      0.00000
     51      55.2965      0.00000
     52      58.0306      0.00000
     53      59.7522      0.00000
     54      59.7522      0.00000
     55      60.4837      0.00000
     56      62.3813      0.00000
     57      65.2310      0.00000
     58      65.2310      0.00000
     59      66.0116      0.00000
     60      66.4858      0.00000
     61      68.9414      0.00000
     62      68.9414      0.00000
     63      69.7209      0.00000
     64      71.4776      0.00000

 k-point    11 :       0.2174    0.0000    0.2174
  band No.  band energies     occupation 
      1      -5.3929      2.00000
      2       2.6729      2.00000
      3       4.0170      2.00000
      4       4.0170      2.00000
      5       6.9712      0.00000
      6       9.2250      0.00000
      7      10.7444      0.00000
      8      10.7444      0.00000
      9      12.8499      0.00000
     10      14.2233      0.00000
     11      16.2423      0.00000
     12      18.1538      0.00000
     13      18.1538      0.00000
     14      18.7950      0.00000
     15      23.5758      0.00000
     16      23.5758      0.00000
     17      24.6605      0.00000
     18      25.3795      0.00000
     19      26.2621      0.00000
     20      29.7200      0.00000
     21      31.8459      0.00000
     22      32.5979      0.00000
     23      32.5979      0.00000
     24      35.6605      0.00000
     25      35.6605      0.00000
     26      35.8833      0.00000
     27      36.9171      0.00000
     28      39.3263      0.00000
     29      39.4736      0.00000
     30      39.4736      0.00000
     31      40.6286      0.00000
     32      42.5178      0.00000
     33      43.2347      0.00000
     34      43.2347      0.00000
     35      45.9633      0.00000
     36      46.1847      0.00000
     37      46.1952      0.00000
     38      46.2281      0.00000
     39      46.2281      0.00000
     40      49.1789      0.00000
     41      49.1789      0.00000
     42      49.9440      0.00000
     43      50.7859      0.00000
     44      52.1557      0.00000
     45      52.1557      0.00000
     46      53.1843      0.00000
     47      54.5278      0.00000
     48      54.9650      0.00000
     49      55.0463      0.00000
     50      55.0463      0.00000
     51      55.8590      0.00000
     52      58.7760      0.00000
     53      59.6895      0.00000
     54      60.7546      0.00000
     55      60.7547      0.00000
     56      63.1819      0.00000
     57      66.3334      0.00000
     58      66.3334      0.00000
     59      66.6889      0.00000
     60      67.2909      0.00000
     61      68.0739      0.00000
     62      68.0740      0.00000
     63      68.7272      0.00000
     64      71.4077      0.00000

 k-point    12 :       0.2391    0.0000    0.2391
  band No.  band energies     occupation 
      1      -5.2256      2.00000
      2       2.2884      2.00000
      3       3.8470      2.00000
      4       3.8470      2.00000
      5       6.8312      0.00000
      6       8.9083      0.00000
      7      11.1146      0.00000
      8      11.1146      0.00000
      9      13.2627      0.00000
     10      14.4122      0.00000
     11      16.6869      0.00000
     12      18.4047      0.00000
     13      18.4047      0.00000
     14      19.0858      0.00000
     15      23.0674      0.00000
     16      23.0674      0.00000
     17      24.0723      0.00000
     18      25.8643      0.00000
     19      26.0273      0.00000
     20      30.0680      0.00000
     21      31.6965      0.00000
     22      32.6060      0.00000
     23      32.6060      0.00000
     24      35.0430      0.00000
     25      35.0430      0.00000
     26      35.2459      0.00000
     27      36.0409      0.00000
     28      39.7337      0.00000
     29      40.2177      0.00000
     30      40.2177      0.00000
     31      40.4347      0.00000
     32      42.3423      0.00000
     33      42.7626      0.00000
[...]
     27      36.5505      0.00000
     28      37.2924      0.00000
     29      37.3754      0.00000
     30      38.0480      0.00000
     31      39.6401      0.00000
     32      42.8297      0.00000
     33      43.1750      0.00000
     34      44.1229      0.00000
     35      45.0433      0.00000
     36      46.2624      0.00000
     37      46.7316      0.00000
     38      47.2949      0.00000
     39      47.5888      0.00000
     40      48.2390      0.00000
     41      51.8188      0.00000
     42      51.8667      0.00000
     43      52.5811      0.00000
     44      53.5163      0.00000
     45      54.3553      0.00000
     46      55.1256      0.00000
     47      56.9571      0.00000
     48      58.6495      0.00000
     49      59.0135      0.00000
     50      59.4627      0.00000
     51      59.6563      0.00000
     52      60.4788      0.00000
     53      61.2869      0.00000
     54      62.7397      0.00000
     55      62.7655      0.00000
     56      64.6961      0.00000
     57      64.9266      0.00000
     58      65.8161      0.00000
     59      66.8072      0.00000
     60      67.6298      0.00000
     61      68.2713      0.00000
     62      68.4907      0.00000
     63      69.7371      0.00000
     64      70.4224      0.00000

 k-point   160 :       0.5556    0.1111    0.5556
  band No.  band energies     occupation 
      1      -2.8289      2.00000
      2      -1.2756      2.00000
      3       2.3204      2.00000
      4       2.5271      2.00000
      5       7.2798      0.00000
      6       7.5921      0.00000
      7      12.7519      0.00000
      8      14.5861      0.00000
      9      15.1215      0.00000
     10      16.8245      0.00000
     11      17.6192      0.00000
     12      19.2256      0.00000
     13      19.5443      0.00000
     14      21.5118      0.00000
     15      21.5903      0.00000
     16      23.1083      0.00000
     17      24.5975      0.00000
     18      25.7561      0.00000
     19      26.3278      0.00000
     20      26.5488      0.00000
     21      28.6670      0.00000
     22      28.8183      0.00000
     23      29.3606      0.00000
     24      30.6184      0.00000
     25      35.0637      0.00000
     26      35.6115      0.00000
     27      36.7621      0.00000
     28      37.9369      0.00000
     29      38.3043      0.00000
     30      38.3392      0.00000
     31      39.6125      0.00000
     32      43.1364      0.00000
     33      43.3461      0.00000
     34      43.5888      0.00000
     35      44.9403      0.00000
     36      45.4445      0.00000
     37      46.6065      0.00000
     38      46.7480      0.00000
     39      47.5572      0.00000
     40      47.9109      0.00000
     41      51.4884      0.00000
     42      52.3954      0.00000
     43      52.5549      0.00000
     44      52.6889      0.00000
     45      54.9363      0.00000
     46      55.7751      0.00000
     47      56.7080      0.00000
     48      59.0638      0.00000
     49      59.1884      0.00000
     50      59.8710      0.00000
     51      60.0496      0.00000
     52      60.6048      0.00000
     53      60.9104      0.00000
     54      62.6467      0.00000
     55      62.8174      0.00000
     56      64.0891      0.00000
     57      65.2808      0.00000
     58      65.4681      0.00000
     59      66.2667      0.00000
     60      67.7192      0.00000
     61      68.3625      0.00000
     62      68.6050      0.00000
     63      70.5453      0.00000
     64      70.6406      0.00000

 k-point   161 :       0.5417    0.0833    0.5417
  band No.  band energies     occupation 
      1      -2.6867      2.00000
      2      -1.4762      2.00000
      3       2.5107      2.00000
      4       2.6053      2.00000
      5       6.8766      0.00000
      6       7.1301      0.00000
      7      13.6800      0.00000
      8      14.9013      0.00000
      9      15.5565      0.00000
     10      16.8273      0.00000
     11      17.5735      0.00000
     12      18.9702      0.00000
     13      19.1040      0.00000
     14      20.5712      0.00000
     15      22.2750      0.00000
     16      23.5737      0.00000
     17      24.5404      0.00000
     18      25.4750      0.00000
     19      26.2857      0.00000
     20      26.3634      0.00000
     21      28.2777      0.00000
     22      28.6025      0.00000
     23      29.3036      0.00000
     24      30.4669      0.00000
     25      35.1729      0.00000
     26      35.3745      0.00000
     27      37.2862      0.00000
     28      38.0917      0.00000
     29      39.2346      0.00000
     30      39.2735      0.00000
     31      39.6851      0.00000
     32      42.2312      0.00000
     33      43.7765      0.00000
     34      44.0864      0.00000
     35      44.6361      0.00000
     36      44.6532      0.00000
     37      46.0739      0.00000
     38      46.0803      0.00000
     39      47.8375      0.00000
     40      47.9007      0.00000
     41      50.7937      0.00000
     42      51.3281      0.00000
     43      52.9307      0.00000
     44      53.0921      0.00000
     45      55.2585      0.00000
     46      56.4966      0.00000
     47      56.9684      0.00000
     48      59.2912      0.00000
     49      59.4626      0.00000
     50      59.7806      0.00000
     51      60.7069      0.00000
     52      60.8217      0.00000
     53      61.0495      0.00000
     54      62.5872      0.00000
     55      62.8508      0.00000
     56      63.5470      0.00000
     57      65.1265      0.00000
     58      65.2132      0.00000
     59      65.8379      0.00000
     60      66.9880      0.00000
     61      68.4658      0.00000
     62      68.6224      0.00000
     63      69.6265      0.00000
     64      71.0077      0.00000

 k-point   162 :       0.5278    0.0556    0.5278
  band No.  band energies     occupation 
      1      -2.5213      2.00000
      2      -1.6935      2.00000
      3       2.6730      2.00000
      4       2.7035      2.00000
      5       6.5720      0.00000
      6       6.7548      0.00000
      7      14.5699      0.00000
      8      15.1808      0.00000
      9      15.9943      0.00000
     10      16.6479      0.00000
     11      17.7222      0.00000
     12      18.6840      0.00000
     13      18.7063      0.00000
     14      19.6267      0.00000
     15      23.0321      0.00000
     16      24.0696      0.00000
     17      24.5793      0.00000
     18      25.2430      0.00000
     19      26.1329      0.00000
     20      26.2290      0.00000
     21      27.4348      0.00000
     22      27.8751      0.00000
     23      29.9479      0.00000
     24      30.6721      0.00000
     25      35.0178      0.00000
     26      35.0588      0.00000
     27      37.9486      0.00000
     28      38.4839      0.00000
     29      39.7462      0.00000
     30      40.0757      0.00000
     31      40.1568      0.00000
     32      41.2896      0.00000
     33      43.8354      0.00000
     34      43.9244      0.00000
     35      44.7048      0.00000
     36      44.7411      0.00000
     37      45.4787      0.00000
     38      45.4813      0.00000
     39      47.7770      0.00000
     40      47.8325      0.00000
     41      50.2995      0.00000
     42      50.5352      0.00000
     43      53.2955      0.00000
     44      53.5157      0.00000
     45      55.1648      0.00000
     46      56.6363      0.00000
     47      57.5779      0.00000
     48      59.1426      0.00000
     49      59.9420      0.00000
     50      60.0628      0.00000
     51      61.0304      0.00000
     52      61.3032      0.00000
     53      61.6811      0.00000
     54      62.6538      0.00000
     55      62.7744      0.00000
     56      63.0499      0.00000
     57      64.8899      0.00000
     58      64.9073      0.00000
     59      65.6836      0.00000
     60      66.2820      0.00000
     61      67.7090      0.00000
     62      68.4984      0.00000
     63      69.0591      0.00000
     64      69.2888      0.00000

 k-point   163 :       0.5139    0.0278    0.5139
  band No.  band energies     occupation 
      1      -2.3349      2.00000
      2      -1.9150      2.00000
      3       2.7828      2.00000
      4       2.7869      2.00000
      5       6.3940      0.00000
      6       6.4910      0.00000
      7      15.2898      0.00000
      8      15.4199      0.00000
      9      16.3661      0.00000
     10      16.5051      0.00000
     11      17.8935      0.00000
     12      18.3825      0.00000
     13      18.4083      0.00000
     14      18.8199      0.00000
     15      23.7840      0.00000
     16      24.3443      0.00000
     17      24.8647      0.00000
     18      25.1120      0.00000
     19      25.8633      0.00000
     20      25.9909      0.00000
     21      26.8415      0.00000
     22      27.2585      0.00000
     23      30.4801      0.00000
     24      30.8412      0.00000
     25      34.7929      0.00000
     26      34.7958      0.00000
     27      38.6917      0.00000
     28      38.9906      0.00000
     29      39.7143      0.00000
     30      40.3687      0.00000
     31      40.7453      0.00000
     32      40.7920      0.00000
     33      43.4748      0.00000
     34      43.5277      0.00000
     35      44.8711      0.00000
     36      44.8756      0.00000
     37      45.4525      0.00000
     38      45.4567      0.00000
     39      47.3416      0.00000
     40      47.3721      0.00000
     41      50.1412      0.00000
     42      50.1781      0.00000
     43      53.7537      0.00000
     44      53.8317      0.00000
     45      55.0775      0.00000
     46      56.0812      0.00000
     47      58.1054      0.00000
     48      58.8435      0.00000
     49      60.5261      0.00000
     50      60.9307      0.00000
     51      61.2956      0.00000
     52      61.7879      0.00000
     53      62.0257      0.00000
     54      62.4638      0.00000
     55      62.6343      0.00000
     56      62.8252      0.00000
     57      64.7066      0.00000
     58      64.8248      0.00000
     59      65.7935      0.00000
     60      65.8421      0.00000
     61      66.8878      0.00000
     62      67.5802      0.00000
     63      68.4233      0.00000
     64      68.6753      0.00000

 k-point   164 :       0.5000    0.0000    0.5000
  band No.  band energies     occupation 
      1      -2.1312      2.00000
      2      -2.1312      2.00000
      3       2.8208      2.00000
      4       2.8208      2.00000
      5       6.3653      0.00000
      6       6.3653      0.00000
      7      15.5472      0.00000
      8      15.5472      0.00000
      9      16.5197      0.00000
     10      16.5197      0.00000
     11      18.0549      0.00000
     12      18.0549      0.00000
     13      18.4118      0.00000
     14      18.4118      0.00000
     15      24.2854      0.00000
     16      24.2854      0.00000
     17      25.1657      0.00000
     18      25.1657      0.00000
     19      25.6194      0.00000
     20      25.6194      0.00000
     21      26.8668      0.00000
     22      26.8668      0.00000
     23      30.7969      0.00000
     24      30.7969      0.00000
     25      34.6912      0.00000
     26      34.6912      0.00000
     27      39.4029      0.00000
     28      39.4029      0.00000
     29      39.5522      0.00000
     30      39.5522      0.00000
     31      41.0228      0.00000
     32      41.0228      0.00000
     33      43.3511      0.00000
     34      43.3511      0.00000
     35      44.7009      0.00000
     36      44.7009      0.00000
     37      45.8321      0.00000
     38      45.8321      0.00000
     39      46.9738      0.00000
     40      46.9738      0.00000
     41      50.1126      0.00000
     42      50.1126      0.00000
     43      53.9818      0.00000
     44      53.9818      0.00000
     45      55.3822      0.00000
     46      55.3822      0.00000
     47      58.5094      0.00000
     48      58.5094      0.00000
     49      61.0212      0.00000
     50      61.0212      0.00000
     51      62.0484      0.00000
     52      62.0484      0.00000
     53      62.1515      0.00000
     54      62.1515      0.00000
     55      62.3765      0.00000
     56      62.3765      0.00000
     57      64.8667      0.00000
     58      64.8667      0.00000
     59      66.1060      0.00000
     60      66.1060      0.00000
     61      66.3376      0.00000
     62      66.3376      0.00000
     63      68.4557      0.00000
     64      68.4557      0.00000


--------------------------------------------------------------------------------------------------------


 soft charge-density along one line, spin component           1
         0         1         2         3         4         5         6         7         8         9
 total charge-density along one line
 
 pseudopotential strength for first ion, spin component:           1
 18.438  -0.001   0.000  -0.000   0.000  -0.000   0.000  -0.000
 -0.001   0.006  -0.000   0.000  -0.000   0.000  -0.000   0.000
  0.000  -0.000   4.181  -0.000   0.000  -0.004   0.000  -0.000
 -0.000   0.000  -0.000   4.181  -0.000   0.000  -0.004   0.000
  0.000  -0.000   0.000  -0.000   4.181  -0.000   0.000  -0.004
 -0.000   0.000  -0.004   0.000  -0.000   0.005  -0.000   0.000
  0.000  -0.000   0.000  -0.004   0.000  -0.000   0.005  -0.000
 -0.000   0.000  -0.000   0.000  -0.004   0.000  -0.000   0.005
 total augmentation occupancy for first ion, spin component:           1
  2.000   0.000   0.000   0.000   0.000   0.000   0.000   0.000
  0.000   0.000   0.000   0.000   0.000   0.000   0.000   0.000
  0.000   0.000   0.667   0.000   0.000   0.000   0.000   0.000
  0.000   0.000   0.000   0.667   0.000   0.000   0.000   0.000
  0.000   0.000   0.000   0.000   0.667   0.000   0.000   0.000
  0.000   0.000   0.000   0.000   0.000   0.000   0.000   0.000
  0.000   0.000   0.000   0.000   0.000   0.000   0.000   0.000
  0.000   0.000   0.000   0.000   0.000   0.000   0.000   0.000


------------------------ aborting loop because EDIFF is reached ----------------------------------------


 


 total charge     
 
# of ion     s       p       d       tot
----------------------------------------
  1        0.743   0.950   0.000   1.693
  2        0.743   0.950   0.000   1.693
------------------------------------------------
tot        1.487   1.899   0.000   3.386
 
    CHARGE:  cpu time    0.0780: real time    0.0803
    FORLOC:  cpu time    0.0000: real time    0.0004
    FORNL :  cpu time    0.6729: real time    0.6731
    STRESS:  cpu time    2.0237: real time    2.0266
    FORCOR:  cpu time    0.0550: real time    0.0558
    FORHAR:  cpu time    0.0160: real time    0.0167
    OFIELD:  cpu time    0.0000: real time    0.0015

  FORCE on cell =-STRESS in cart. coord.  units (eV):
  Direction    XX          YY          ZZ          XY          YZ          ZX
  --------------------------------------------------------------------------------------
  Alpha Z     3.29187     3.29187     3.29187
  Ewald     -75.63840   -75.63832   -75.63837    -0.00000     0.00002    -0.00000
  Hartree     5.33639     5.26581     5.34614    -0.04549    -0.09636    -0.13057
  E(xc)     -25.16333   -25.39705   -25.24110     0.07889    -0.13518    -0.10261
  Local     -28.00764   -32.56822   -29.54881     1.70806    -2.45162    -1.71197
  n-local    76.24289    79.46245    77.35708    -1.09784     1.89394     1.37849
  augment   -11.42376   -11.82457   -11.55805     0.13253    -0.25682    -0.20835
  Kinetic    56.49601    57.78918    56.85568    -0.36630     1.39140     1.53614
  Fock        0.00000     0.00000     0.00000     0.00000     0.00000     0.00000
  -------------------------------------------------------------------------------------
  Total       1.13404     0.38116     0.86444     0.40986     0.34537     0.76113
  in kB      44.41878    14.92970    33.85915    16.05352    13.52783    29.81265
  external pressure =       31.07 kB  Pullay stress =        0.00 kB


 VOLUME and BASIS-vectors are now :
 -----------------------------------------------------------------------------
  energy-cutoff  :      520.00
  volume of cell :       40.90
      direct lattice vectors                 reciprocal lattice vectors
     3.867484000  0.000000000  0.000000000     0.258566034 -0.149283142 -0.105559013
     1.933742000  3.349340000  0.000000000     0.000000000  0.298566285  0.211118026
     0.000000000 -2.232891000  3.157788000     0.000000000  0.000000000  0.316677370

  length of vectors
     3.867484000  3.867484526  3.867483325     0.316677369  0.365667400  0.316677370


 FORCES acting on ions
    electron-ion (+dipol)            ewald-force                    non-local-force                 convergence-correction
 -----------------------------------------------------------------------------------------------
   0.382E+00 0.485E+00 0.174E+00   -.103E-13 -.216E-04 0.711E-05   -.134E+00 -.235E+00 -.274E+00   -.760E-01 -.782E-01 0.104E-01
   -.382E+00 -.485E+00 -.174E+00   0.112E-13 0.216E-04 -.711E-05   0.134E+00 0.236E+00 0.274E+00   0.760E-01 0.782E-01 -.104E-01
 -----------------------------------------------------------------------------------------------
   -.599E-06 -.433E-06 -.716E-07   0.899E-15 0.819E-16 0.200E-16   0.889E-05 0.105E-04 0.920E-05   0.124E-06 0.664E-07 -.298E-07
 
 
 POSITION                                       TOTAL-FORCE (eV/Angst)
 -----------------------------------------------------------------------------------
      0.00000      0.00000      0.00000         0.172285      0.171629     -0.089555
      3.86748      0.00000      2.36834        -0.172285     -0.171629      0.089555
 -----------------------------------------------------------------------------------
    total drift:                                0.000008      0.000010      0.000009


--------------------------------------------------------------------------------------------------------



  FREE ENERGIE OF THE ION-ELECTRON SYSTEM (eV)
  ---------------------------------------------------
  free  energy   TOTEN  =       -10.57207908 eV

  energy  without entropy=      -10.57207908  energy(sigma->0) =      -10.57207908
 


--------------------------------------------------------------------------------------------------------


    POTLOK:  cpu time    0.0700: real time    0.0720


--------------------------------------------------------------------------------------------------------


     LOOP+:  cpu time  129.5333: real time  129.6136
    4ORBIT:  cpu time    0.0000: real time    0.0000
 


 total charge     
 
# of ion     s       p       d       tot
----------------------------------------
  1        0.743   0.950   0.000   1.693
  2        0.743   0.950   0.000   1.693
------------------------------------------------
tot        1.487   1.899   0.000   3.386
 

 total amount of memory used by VASP on root node    38863. kBytes
========================================================================

   base      :      30000. kBytes
   nonlr-proj:        832. kBytes
   fftplans  :        365. kBytes
   grid      :       1447. kBytes
   one-center:          6. kBytes
   wavefun   :       6213. kBytes
 
  
  
 General timing and accounting informations for this job:
 ========================================================
  
                  Total CPU time used (sec):      139.696
                            User time (sec):       78.018
                          System time (sec):       61.678
                         Elapsed time (sec):      140.246
  
                   Maximum memory used (kb):       50084.
                   Average memory used (kb):           0.
  
                          Minor page faults:        13785
                          Major page faults:            0
                 Voluntary context switches:        24278
