PROCAR lm decomposed
# of k-points:  164         # of bands:  64         # of ions:   2

 k-point    1 :    0.00000000 0.00000000 0.00000000     weight = 0.00609756

band   1 # energy   -6.19852014 # occ.  2.00000000
 
ion      s     py     pz     px    dxy    dyz    dz2    dxz    dx2    tot
  1  0.212  0.000  0.000  0.000  0.000  0.000  0.000  0.000  0.000  0.212
  2  0.212  0.000  0.000  0.000  0.000  0.000  0.000  0.000  0.000  0.212
tot  0.424  0.000  0.000  0.000  0.000  0.000  0.000  0.000  0.000  0.424
 
band   2 # energy    5.61420987 # occ.  2.00000000
 
ion      s     py     pz     px    dxy    dyz    dz2    dxz    dx2    tot
  1  0.000  0.147  0.064  0.002  0.000  0.000  0.000  0.000  0.000  0.214
  2  0.000  0.147  0.064  0.002  0.000  0.000  0.000  0.000  0.000  0.214
tot  0.000  0.295  0.128  0.004  0.000  0.000  0.000  0.000  0.000  0.428
 
band   3 # energy    5.61421452 # occ.  2.00000000
 
ion      s     py     pz     px    dxy    dyz    dz2    dxz    dx2    tot
  1  0.000  0.056  0.144  0.014  0.000  0.000  0.000  0.000  0.000  0.214
  2  0.000  0.056  0.144  0.014  0.000  0.000  0.000  0.000  0.000  0.214
tot  0.000  0.111  0.288  0.028  0.000  0.000  0.000  0.000  0.000  0.428
 
band   4 # energy    5.61421579 # occ.  2.00000000
 
ion      s     py     pz     px    dxy    dyz    dz2    dxz    dx2    tot
  1  0.000  0.011  0.005  0.198  0.000  0.000  0.000  0.000  0.000  0.214
  2  0.000  0.011  0.005  0.198  0.000  0.000  0.000  0.000  0.000  0.214
tot  0.000  0.021  0.011  0.395  0.000  0.000  0.000  0.000  0.000  0.428
 
band   5 # energy    8.17027308 # occ.  0.00000000
 
ion      s     py     pz     px    dxy    dyz    dz2    dxz    dx2    tot
  1  0.000  0.002  0.004  0.146  0.000  0.000  0.000  0.000  0.000  0.151
  2  0.000  0.002  0.004  0.146  0.000  0.000  0.000  0.000  0.000  0.151
tot  0.000  0.003  0.007  0.291  0.000  0.000  0.000  0.000  0.000  0.301
 
band   6 # energy    8.17027380 # occ.  0.00000000
 
ion      s     py     pz     px    dxy    dyz    dz2    dxz    dx2    tot
  1  0.000  0.003  0.144  0.004  0.000  0.000  0.000  0.000  0.000  0.151
  2  0.000  0.003  0.144  0.004  0.000  0.000  0.000  0.000  0.000  0.151
tot  0.000  0.005  0.288  0.008  0.000  0.000  0.000  0.000  0.000  0.301
 
band   7 # energy    8.17027846 # occ.  0.00000000
 
ion      s     py     pz     px    dxy    dyz    dz2    dxz    dx2    tot
  1  0.000  0.147  0.003  0.001  0.000  0.000  0.000  0.000  0.000  0.151
  2  0.000  0.147  0.003  0.001  0.000  0.000  0.000  0.000  0.000  0.151
tot  0.000  0.293  0.006  0.002  0.000  0.000  0.000  0.000  0.000  0.301
 
band   8 # energy    8.74356910 # occ.  0.00000000
 
ion      s     py     pz     px    dxy    dyz    dz2    dxz    dx2    tot
  1  0.359  0.000  0.000  0.000  0.000  0.000  0.000  0.000  0.000  0.359
  2  0.359  0.000  0.000  0.000  0.000  0.000  0.000  0.000  0.000  0.359
tot  0.717  0.000  0.000  0.000  0.000  0.000  0.000  0.000  0.000  0.717
 
band   9 # energy   13.32226324 # occ.  0.00000000
 
ion      s     py     pz     px    dxy    dyz    dz2    dxz    dx2    tot
  1  0.000  0.000  0.000  0.000  0.000  0.000  0.000  0.000  0.000  0.000
  2  0.000  0.000  0.000  0.000  0.000  0.000  0.000  0.000  0.000  0.000
tot  0.000  0.000  0.000  0.000  0.000  0.000  0.000  0.000  0.000  0.000
 
band  10 # energy   13.32227384 # occ.  0.00000000
 
ion      s     py     pz     px    dxy    dyz    dz2    dxz    dx2    tot
  1  0.000  0.000  0.000  0.000  0.000  0.000  0.000  0.000  0.000  0.000
  2  0.000  0.000  0.000  0.000  0.000  0.000  0.000  0.000  0.000  0.000
tot  0.000  0.000  0.000  0.000  0.000  0.000  0.000  0.000  0.000  0.000
 
band  11 # energy   13.48832542 # occ.  0.00000000
 
ion      s     py     pz     px    dxy    dyz    dz2    dxz    dx2    tot
  1  0.100  0.000  0.000  0.000  0.000  0.000  0.000  0.000  0.000  0.100
  2  0.100  0.000  0.000  0.000  0.000  0.000  0.000  0.000  0.000  0.100
tot  0.201  0.000  0.000  0.000  0.000  0.000  0.000  0.000  0.000  0.201
 
band  12 # energy   16.79389620 # occ.  0.00000000
 
ion      s     py     pz     px    dxy    dyz    dz2    dxz    dx2    tot
  1  0.000  0.024  0.015  0.000  0.000  0.000  0.000  0.000  0.000  0.039
  2  0.000  0.024  0.015  0.000  0.000  0.000  0.000  0.000  0.000  0.039
tot  0.000  0.048  0.030  0.000  0.000  0.000  0.000  0.000  0.000  0.078
 
band  13 # energy   16.79391254 # occ.  0.00000000
 
ion      s     py     pz     px    dxy    dyz    dz2    dxz    dx2    tot
  1  0.000  0.000  0.000  0.039  0.000  0.000  0.000  0.000  0.000  0.039
  2  0.000  0.000  0.000  0.039  0.000  0.000  0.000  0.000  0.000  0.039
tot  0.000  0.000  0.000  0.078  0.000  0.000  0.000  0.000  0.000  0.078
 
band  14 # energy   16.79391387 # occ.  0.00000000
 
ion      s     py     pz     px    dxy    dyz    dz2    dxz    dx2    tot
  1  0.000  0.015  0.024  0.000  0.000  0.000  0.000  0.000  0.000  0.039
  2  0.000  0.015  0.024  0.000  0.000  0.000  0.000  0.000  0.000  0.039
tot  0.000  0.030  0.048  0.000  0.000  0.000  0.000  0.000  0.000  0.078
 
band  15 # energy   20.88237424 # occ.  0.00000000
 
ion      s     py     pz     px    dxy    dyz    dz2    dxz    dx2    tot
  1  0.037  0.000  0.000  0.000  0.000  0.000  0.000  0.000  0.000  0.037
  2  0.037  0.000  0.000  0.000  0.000  0.000  0.000  0.000  0.000  0.037
tot  0.075  0.000  0.000  0.000  0.000  0.000  0.000  0.000  0.000  0.075
 
band  16 # energy   28.46330522 # occ.  0.00000000
 
ion      s     py     pz     px    dxy    dyz    dz2    dxz    dx2    tot
  1  0.000  0.003  0.005  0.002  0.000  0.000  0.000  0.000  0.000  0.010
  2  0.000  0.003  0.005  0.002  0.000  0.000  0.000  0.000  0.000  0.010
tot  0.000  0.006  0.010  0.004  0.000  0.000  0.000  0.000  0.000  0.020
 
band  17 # energy   28.46330768 # occ.  0.00000000
 
ion      s     py     pz     px    dxy    dyz    dz2    dxz    dx2    tot
  1  0.000  0.001  0.001  0.008  0.000  0.000  0.000  0.000  0.000  0.010
  2  0.000  0.001  0.001  0.008  0.000  0.000  0.000  0.000  0.000  0.010
tot  0.000  0.002  0.003  0.016  0.000  0.000  0.000  0.000  0.000  0.020
 
band  18 # energy   28.46332819 # occ.  0.00000000
 
ion      s     py     pz     px    dxy    dyz    dz2    dxz    dx2    tot
  1  0.000  0.006  0.004  0.000  0.000  0.000  0.000  0.000  0.000  0.010
  2  0.000  0.006  0.004  0.000  0.000  0.000  0.000  0.000  0.000  0.010
tot  0.000  0.013  0.008  0.000  0.000  0.000  0.000  0.000  0.000  0.020
 
band  19 # energy   29.54391474 # occ.  0.00000000
 
ion      s     py     pz     px    dxy    dyz    dz2    dxz    dx2    tot
  1  0.000  0.000  0.000  0.000  0.000  0.000  0.000  0.000  0.000  0.000
  2  0.000  0.000  0.000  0.000  0.000  0.000  0.000  0.000  0.000  0.000
tot  0.000  0.000  0.000  0.000  0.000  0.000  0.000  0.000  0.000  0.000
 
band  20 # energy   29.54392882 # occ.  0.00000000
 
ion      s     py     pz     px    dxy    dyz    dz2    dxz    dx2    tot
  1  0.000  0.000  0.000  0.000  0.000  0.000  0.000  0.000  0.000  0.000
  2  0.000  0.000  0.000  0.000  0.000  0.000  0.000  0.000  0.000  0.000
tot  0.000  0.000  0.000  0.000  0.000  0.000  0.000  0.000  0.000  0.000
 
band  21 # energy   30.98887202 # occ.  0.00000000
 
ion      s     py     pz     px    dxy    dyz    dz2    dxz    dx2    tot
  1  0.000  0.086  0.139  0.001  0.000  0.000  0.000  0.000  0.000  0.225
  2  0.000  0.086  0.139  0.001  0.000  0.000  0.000  0.000  0.000  0.225
tot  0.000  0.171  0.278  0.001  0.000  0.000  0.000  0.000  0.000  0.450
 
band  22 # energy   30.98888085 # occ.  0.00000000
 
ion      s     py     pz     px    dxy    dyz    dz2    dxz    dx2    tot
  1  0.000  0.000  0.001  0.224  0.000  0.000  0.000  0.000  0.000  0.225
  2  0.000  0.000  0.001  0.224  0.000  0.000  0.000  0.000  0.000  0.225
tot  0.000  0.000  0.002  0.449  0.000  0.000  0.000  0.000  0.000  0.450
 
band  23 # energy   30.98888774 # occ.  0.00000000
 
ion      s     py     pz     px    dxy    dyz    dz2    dxz    dx2    tot
  1  0.000  0.140  0.085  0.000  0.000  0.000  0.000  0.000  0.000  0.225
  2  0.000  0.140  0.085  0.000  0.000  0.000  0.000  0.000  0.000  0.225
tot  0.000  0.279  0.171  0.000  0.000  0.000  0.000  0.000  0.000  0.450
 
band  24 # energy   34.51971518 # occ.  0.00000000
 
ion      s     py     pz     px    dxy    dyz    dz2    dxz    dx2    tot
  1  0.000  0.000  0.000  0.000  0.000  0.000  0.000  0.000  0.000  0.000
  2  0.000  0.000  0.000  0.000  0.000  0.000  0.000  0.000  0.000  0.000
tot  0.000  0.000  0.000  0.000  0.000  0.000  0.000  0.000  0.000  0.000
 
band  25 # energy   34.51972721 # occ.  0.00000000
 
ion      s     py     pz     px    dxy    dyz    dz2    dxz    dx2    tot
  1  0.000  0.000  0.000  0.000  0.000  0.000  0.000  0.000  0.000  0.000
  2  0.000  0.000  0.000  0.000  0.000  0.000  0.000  0.000  0.000  0.000
tot  0.000  0.000  0.000  0.000  0.000  0.000  0.000  0.000  0.000  0.000
 
band  26 # energy   34.51973100 # occ.  0.00000000
 
ion      s     py     pz     px    dxy    dyz    dz2    dxz    dx2    tot
  1  0.000  0.000  0.000  0.000  0.000  0.000  0.000  0.000  0.000  0.000
  2  0.000  0.000  0.000  0.000  0.000  0.000  0.000  0.000  0.000  0.000
tot  0.000  0.000  0.000  0.000  0.000  0.000  0.000  0.000  0.000  0.000
 
band  27 # energy   40.10093386 # occ.  0.00000000
 
ion      s     py     pz     px    dxy    dyz    dz2    dxz    dx2    tot
  1  0.000  0.000  0.000  0.005  0.000  0.000  0.000  0.000  0.000  0.006
  2  0.000  0.000  0.000  0.005  0.000  0.000  0.000  0.000  0.000  0.006
tot  0.000  0.000  0.001  0.010  0.000  0.000  0.000  0.000  0.000  0.011
 
band  28 # energy   40.10093866 # occ.  0.00000000
 
ion      s     py     pz     px    dxy    dyz    dz2    dxz    dx2    tot
  1  0.000  0.000  0.005  0.000  0.000  0.000  0.000  0.000  0.000  0.006
  2  0.000  0.000  0.005  0.000  0.000  0.000  0.000  0.000  0.000  0.006
tot  0.000  0.000  0.010  0.001  0.000  0.000  0.000  0.000  0.000  0.011
 
band  29 # energy   40.10094755 # occ.  0.00000000
 
ion      s     py     pz     px    dxy    dyz    dz2    dxz    dx2    tot
  1  0.000  0.006  0.000  0.000  0.000  0.000  0.000  0.000  0.000  0.006
  2  0.000  0.006  0.000  0.000  0.000  0.000  0.000  0.000  0.000  0.006
tot  0.000  0.011  0.000  0.000  0.000  0.000  0.000  0.000  0.000  0.011
 
band  30 # energy   43.40215107 # occ.  0.00000000
 
ion      s     py     pz     px    dxy    dyz    dz2    dxz    dx2    tot
  1  0.095  0.000  0.000  0.000  0.000  0.000  0.000  0.000  0.000  0.095
  2  0.095  0.000  0.000  0.000  0.000  0.000  0.000  0.000  0.000  0.095
tot  0.191  0.000  0.000  0.000  0.000  0.000  0.000  0.000  0.000  0.191
 
band  31 # energy   43.87633717 # occ.  0.00000000
 
ion      s     py     pz     px    dxy    dyz    dz2    dxz    dx2    tot
  1  0.000  0.000  0.000  0.000  0.000  0.000  0.000  0.000  0.000  0.000
  2  0.000  0.000  0.000  0.000  0.000  0.000  0.000  0.000  0.000  0.000
tot  0.000  0.000  0.000  0.000  0.000  0.000  0.000  0.000  0.000  0.000
 
band  32 # energy   43.87635969 # occ.  0.00000000
 
ion      s     py     pz     px    dxy    dyz    dz2    dxz    dx2    tot
  1  0.000  0.000  0.000  0.000  0.000  0.000  0.000  0.000  0.000  0.000
  2  0.000  0.000  0.000  0.000  0.000  0.000  0.000  0.000  0.000  0.000
tot  0.000  0.000  0.000  0.000  0.000  0.000  0.000  0.000  0.000  0.000
 
band  33 # energy   45.76964124 # occ.  0.00000000
 
ion      s     py     pz     px    dxy    dyz    dz2    dxz    dx2    tot
  1  0.000  0.000  0.000  0.000  0.000  0.000  0.000  0.000  0.000  0.000
  2  0.000  0.000  0.000  0.000  0.000  0.000  0.000  0.000  0.000  0.000
tot  0.000  0.000  0.000  0.000  0.000  0.000  0.000  0.000  0.000  0.000
 
band  34 # energy   45.76965837 # occ.  0.00000000
 
ion      s     py     pz     px    dxy    dyz    dz2    dxz    dx2    tot
  1  0.000  0.000  0.000  0.000  0.000  0.000  0.000  0.000  0.000  0.000
  2  0.000  0.000  0.000  0.000  0.000  0.000  0.000  0.000  0.000  0.000
tot  0.000  0.000  0.000  0.000  0.000  0.000  0.000  0.000  0.000  0.000
 
band  35 # energy   47.26181726 # occ.  0.00000000
 
ion      s     py     pz     px    dxy    dyz    dz2    dxz    dx2    tot
  1  0.000  0.003  0.028  0.105  0.000  0.000  0.000  0.000  0.000  0.136
  2  0.000  0.003  0.028  0.105  0.000  0.000  0.000  0.000  0.000  0.136
tot  0.000  0.006  0.057  0.210  0.000  0.000  0.000  0.000  0.000  0.273
 
band  36 # energy   47.26181767 # occ.  0.00000000
 
ion      s     py     pz     px    dxy    dyz    dz2    dxz    dx2    tot
  1  0.000  0.013  0.092  0.031  0.000  0.000  0.000  0.000  0.000  0.136
  2  0.000  0.013  0.092  0.031  0.000  0.000  0.000  0.000  0.000  0.136
tot  0.000  0.025  0.185  0.063  0.000  0.000  0.000  0.000  0.000  0.273
 
band  37 # energy   47.26182859 # occ.  0.00000000
 
ion      s     py     pz     px    dxy    dyz    dz2    dxz    dx2    tot
  1  0.000  0.121  0.016  0.000  0.000  0.000  0.000  0.000  0.000  0.136
  2  0.000  0.121  0.016  0.000  0.000  0.000  0.000  0.000  0.000  0.136
tot  0.000  0.242  0.031  0.000  0.000  0.000  0.000  0.000  0.000  0.273
 
band  38 # energy   49.01148019 # occ.  0.00000000
 
ion      s     py     pz     px    dxy    dyz    dz2    dxz    dx2    tot
  1  0.000  0.021  0.008  0.000  0.000  0.000  0.000  0.000  0.000  0.029
  2  0.000  0.021  0.008  0.000  0.000  0.000  0.000  0.000  0.000  0.029
tot  0.000  0.043  0.015  0.000  0.000  0.000  0.000  0.000  0.000  0.058
 
band  39 # energy   49.01151317 # occ.  0.00000000
 
ion      s     py     pz     px    dxy    dyz    dz2    dxz    dx2    tot
  1  0.000  0.008  0.021  0.000  0.000  0.000  0.000  0.000  0.000  0.029
  2  0.000  0.008  0.021  0.000  0.000  0.000  0.000  0.000  0.000  0.029
tot  0.000  0.015  0.043  0.000  0.000  0.000  0.000  0.000  0.000  0.058
 
band  40 # energy   49.01151668 # occ.  0.00000000
 
ion      s     py     pz     px    dxy    dyz    dz2    dxz    dx2    tot
  1  0.000  0.000  0.000  0.029  0.000  0.000  0.000  0.000  0.000  0.029
  2  0.000  0.000  0.000  0.029  0.000  0.000  0.000  0.000  0.000  0.029
tot  0.000  0.000  0.000  0.058  0.000  0.000  0.000  0.000  0.000  0.058
 
band  41 # energy   49.46871482 # occ.  0.00000000
 
ion      s     py     pz     px    dxy    dyz    dz2    dxz    dx2    tot
  1  0.048  0.000  0.000  0.000  0.000  0.000  0.000  0.000  0.000  0.048
  2  0.048  0.000  0.000  0.000  0.000  0.000  0.000  0.000  0.000  0.048
tot  0.097  0.000  0.000  0.000  0.000  0.000  0.000  0.000  0.000  0.097
 
band  42 # energy   50.07803344 # occ.  0.00000000
 
ion      s     py     pz     px    dxy    dyz    dz2    dxz    dx2    tot
  1  0.000  0.018  0.004  0.000  0.000  0.000  0.000  0.000  0.000  0.022
  2  0.000  0.018  0.004  0.000  0.000  0.000  0.000  0.000  0.000  0.022
tot  0.000  0.036  0.008  0.000  0.000  0.000  0.000  0.000  0.000  0.044
 
band  43 # energy   50.07805632 # occ.  0.00000000
 
ion      s     py     pz     px    dxy    dyz    dz2    dxz    dx2    tot
  1  0.000  0.004  0.018  0.000  0.000  0.000  0.000  0.000  0.000  0.022
  2  0.000  0.004  0.018  0.000  0.000  0.000  0.000  0.000  0.000  0.022
tot  0.000  0.008  0.036  0.000  0.000  0.000  0.000  0.000  0.000  0.044
 
band  44 # energy   50.07806095 # occ.  0.00000000
 
ion      s     py     pz     px    dxy    dyz    dz2    dxz    dx2    tot
  1  0.000  0.000  0.000  0.022  0.000  0.000  0.000  0.000  0.000  0.022
  2  0.000  0.000  0.000  0.022  0.000  0.000  0.000  0.000  0.000  0.022
tot  0.000  0.000  0.000  0.044  0.000  0.000  0.000  0.000  0.000  0.044
 
band  45 # energy   50.07993233 # occ.  0.00000000
 
ion      s     py     pz     px    dxy    dyz    dz2    dxz    dx2    tot
  1  0.000  0.000  0.000  0.000  0.000  0.000  0.000  0.000  0.000  0.000
  2  0.000  0.000  0.000  0.000  0.000  0.000  0.000  0.000  0.000  0.000
tot  0.000  0.000  0.000  0.000  0.000  0.000  0.000  0.000  0.000  0.000
 
band  46 # energy   50.07993285 # occ.  0.00000000
 
ion      s     py     pz     px    dxy    dyz    dz2    dxz    dx2    tot
  1  0.000  0.000  0.000  0.000  0.000  0.000  0.000  0.000  0.000  0.000
  2  0.000  0.000  0.000  0.000  0.000  0.000  0.000  0.000  0.000  0.000
tot  0.000  0.000  0.000  0.000  0.000  0.000  0.000  0.000  0.000  0.000
 
band  47 # energy   50.07995594 # occ.  0.00000000
 
ion      s     py     pz     px    dxy    dyz    dz2    dxz    dx2    tot
  1  0.000  0.000  0.000  0.000  0.000  0.000  0.000  0.000  0.000  0.000
  2  0.000  0.000  0.000  0.000  0.000  0.000  0.000  0.000  0.000  0.000
tot  0.000  0.000  0.000  0.000  0.000  0.000  0.000  0.000  0.000  0.000
 
band  48 # energy   51.50045415 # occ.  0.00000000
 
ion      s     py     pz     px    dxy    dyz    dz2    dxz    dx2    tot
  1  0.000  0.000  0.000  0.000  0.000  0.000  0.000  0.000  0.000  0.000
  2  0.000  0.000  0.000  0.000  0.000  0.000  0.000  0.000  0.000  0.000
tot  0.000  0.000  0.000  0.000  0.000  0.000  0.000  0.000  0.000  0.000
 
band  49 # energy   51.50045629 # occ.  0.00000000
 
ion      s     py     pz     px    dxy    dyz    dz2    dxz    dx2    tot
  1  0.000  0.000  0.000  0.000  0.000  0.000  0.000  0.000  0.000  0.000
  2  0.000  0.000  0.000  0.000  0.000  0.000  0.000  0.000  0.000  0.000
tot  0.000  0.000  0.000  0.000  0.000  0.000  0.000  0.000  0.000  0.000
 
band  50 # energy   51.50047659 # occ.  0.00000000
 
ion      s     py     pz     px    dxy    dyz    dz2    dxz    dx2    tot
  1  0.000  0.000  0.000  0.000  0.000  0.000  0.000  0.000  0.000  0.000
  2  0.000  0.000  0.000  0.000  0.000  0.000  0.000  0.000  0.000  0.000
tot  0.000  0.000  0.000  0.000  0.000  0.000  0.000  0.000  0.000  0.000
 
band  51 # energy   55.34855059 # occ.  0.00000000
 
ion      s     py     pz     px    dxy    dyz    dz2    dxz    dx2    tot
  1  0.033  0.000  0.000  0.000  0.000  0.000  0.000  0.000  0.000  0.033
  2  0.033  0.000  0.000  0.000  0.000  0.000  0.000  0.000  0.000  0.033
tot  0.067  0.000  0.000  0.000  0.000  0.000  0.000  0.000  0.000  0.067
 
band  52 # energy   56.51977467 # occ.  0.00000000
 
ion      s     py     pz     px    dxy    dyz    dz2    dxz    dx2    tot
  1  0.000  0.000  0.000  0.024  0.000  0.000  0.000  0.000  0.000  0.024
  2  0.000  0.000  0.000  0.024  0.000  0.000  0.000  0.000  0.000  0.024
tot  0.000  0.000  0.000  0.049  0.000  0.000  0.000  0.000  0.000  0.049
 
band  53 # energy   56.51977761 # occ.  0.00000000
 
ion      s     py     pz     px    dxy    dyz    dz2    dxz    dx2    tot
  1  0.000  0.001  0.023  0.000  0.000  0.000  0.000  0.000  0.000  0.024
  2  0.000  0.001  0.023  0.000  0.000  0.000  0.000  0.000  0.000  0.024
tot  0.000  0.003  0.046  0.000  0.000  0.000  0.000  0.000  0.000  0.049
 
band  54 # energy   56.51979324 # occ.  0.00000000
 
ion      s     py     pz     px    dxy    dyz    dz2    dxz    dx2    tot
  1  0.000  0.023  0.001  0.000  0.000  0.000  0.000  0.000  0.000  0.024
  2  0.000  0.023  0.001  0.000  0.000  0.000  0.000  0.000  0.000  0.024
tot  0.000  0.046  0.003  0.000  0.000  0.000  0.000  0.000  0.000  0.049
 
band  55 # energy   56.80347045 # occ.  0.00000000
 
ion      s     py     pz     px    dxy    dyz    dz2    dxz    dx2    tot
  1  0.000  0.000  0.000  0.029  0.000  0.000  0.000  0.000  0.000  0.029
  2  0.000  0.000  0.000  0.029  0.000  0.000  0.000  0.000  0.000  0.029
tot  0.000  0.000  0.000  0.057  0.000  0.000  0.000  0.000  0.000  0.058
 
band  56 # energy   56.80347364 # occ.  0.00000000
 
ion      s     py     pz     px    dxy    dyz    dz2    dxz    dx2    tot
  1  0.000  0.001  0.027  0.000  0.000  0.000  0.000  0.000  0.000  0.029
  2  0.000  0.001  0.027  0.000  0.000  0.000  0.000  0.000  0.000  0.029
tot  0.000  0.003  0.055  0.000  0.000  0.000  0.000  0.000  0.000  0.058
 
band  57 # energy   56.80348790 # occ.  0.00000000
 
ion      s     py     pz     px    dxy    dyz    dz2    dxz    dx2    tot
  1  0.000  0.028  0.001  0.000  0.000  0.000  0.000  0.000  0.000  0.029
  2  0.000  0.028  0.001  0.000  0.000  0.000  0.000  0.000  0.000  0.029
tot  0.000  0.055  0.003  0.000  0.000  0.000  0.000  0.000  0.000  0.058
 
band  58 # energy   61.60541935 # occ.  0.00000000
 
ion      s     py     pz     px    dxy    dyz    dz2    dxz    dx2    tot
  1  0.145  0.000  0.000  0.000  0.000  0.000  0.000  0.000  0.000  0.145
  2  0.145  0.000  0.000  0.000  0.000  0.000  0.000  0.000  0.000  0.145
tot  0.290  0.000  0.000  0.000  0.000  0.000  0.000  0.000  0.000  0.290
 
band  59 # energy   62.46023239 # occ.  0.00000000
 
ion      s     py     pz     px    dxy    dyz    dz2    dxz    dx2    tot
  1  0.179  0.000  0.000  0.000  0.000  0.000  0.000  0.000  0.000  0.179
  2  0.179  0.000  0.000  0.000  0.000  0.000  0.000  0.000  0.000  0.179
tot  0.357  0.000  0.000  0.000  0.000  0.000  0.000  0.000  0.000  0.357
 
band  60 # energy   71.24506152 # occ.  0.00000000
 
ion      s     py     pz     px    dxy    dyz    dz2    dxz    dx2    tot
  1  0.000  0.000  0.000  0.000  0.000  0.000  0.000  0.000  0.000  0.000
  2  0.000  0.000  0.000  0.000  0.000  0.000  0.000  0.000  0.000  0.000
tot  0.000  0.000  0.000  0.000  0.000  0.000  0.000  0.000  0.000  0.000
 
band  61 # energy   71.24511418 # occ.  0.00000000
 
ion      s     py     pz     px    dxy    dyz    dz2    dxz    dx2    tot
  1  0.000  0.000  0.000  0.000  0.000  0.000  0.000  0.000  0.000  0.000
  2  0.000  0.000  0.000  0.000  0.000  0.000  0.000  0.000  0.000  0.000
tot  0.000  0.000  0.000  0.000  0.000  0.000  0.000  0.000  0.000  0.000
 
band  62 # energy   74.25590437 # occ.  0.00000000
 
ion      s     py     pz     px    dxy    dyz    dz2    dxz    dx2    tot
  1  0.000  0.007  0.003  0.000  0.000  0.000  0.000  0.000  0.000  0.011
  2  0.000  0.007  0.003  0.000  0.000  0.000  0.000  0.000  0.000  0.011
tot  0.000  0.014  0.007  0.000  0.000  0.000  0.000  0.000  0.000  0.021
 
band  63 # energy   74.25597160 # occ.  0.00000000
 
ion      s     py     pz     px    dxy    dyz    dz2    dxz    dx2    tot
  1  0.000  0.000  0.001  0.010  0.000  0.000  0.000  0.000  0.000  0.011
  2  0.000  0.000  0.001  0.010  0.000  0.000  0.000  0.000  0.000  0.011
tot  0.000  0.001  0.001  0.020  0.000  0.000  0.000  0.000  0.000  0.021
 
band  64 # energy   74.25598127 # occ.  0.00000000
 
ion      s     py     pz     px    dxy    dyz    dz2    dxz    dx2    tot
  1  0.000  0.003  0.007  0.001  0.000  0.000  0.000  0.000  0.000  0.011
  2  0.000  0.003  0.007  0.001  0.000  0.000  0.000  0.000  0.000  0.011
tot  0.000  0.006  0.013  0.002  0.000  0.000  0.000  0.000  0.000  0.021
 

 k-point    2 :    0.02173913 0.00000000 0.02173913     weight = 0.00609756

band   1 # energy   -6.19039800 # occ.  2.00000000
 
ion      s     py     pz     px    dxy    dyz    dz2    dxz    dx2    tot
  1  0.212  0.000  0.000  0.000  0.000  0.000  0.000  0.000  0.000  0.212
  2  0.212  0.000  0.000  0.000  0.000  0.000  0.000  0.000  0.000  0.212
tot  0.424  0.000  0.000  0.000  0.000  0.000  0.000  0.000  0.000  0.424
 
band   2 # energy    5.55547511 # occ.  2.00000000
 
ion      s     py     pz     px    dxy    dyz    dz2    dxz    dx2    tot
  1  0.007  0.035  0.070  0.104  0.000  0.000  0.000  0.000  0.000  0.216
  2  0.007  0.035  0.070  0.104  0.000  0.000  0.000  0.000  0.000  0.216
tot  0.015  0.070  0.139  0.209  0.000  0.000  0.000  0.000  0.000  0.432
 
band   3 # energy    5.57960517 # occ.  2.00000000
 
ion      s     py     pz     px    dxy    dyz    dz2    dxz    dx2    tot
  1  0.000  0.131  0.080  0.002  0.000  0.000  0.000  0.000  0.000  0.213
  2  0.000  0.131  0.080  0.002  0.000  0.000  0.000  0.000  0.000  0.213
tot  0.000  0.262  0.161  0.004  0.000  0.000  0.000  0.000  0.000  0.426
 
band   4 # energy    5.57961060 # occ.  2.00000000
 
ion      s     py     pz     px    dxy    dyz    dz2    dxz    dx2    tot
  1  0.000  0.047  0.062  0.105  0.000  0.000  0.000  0.000  0.000  0.213
  2  0.000  0.047  0.062  0.105  0.000  0.000  0.000  0.000  0.000  0.213
tot  0.000  0.093  0.123  0.209  0.000  0.000  0.000  0.000  0.000  0.426
 
band   5 # energy    8.15005143 # occ.  0.00000000
 
ion      s     py     pz     px    dxy    dyz    dz2    dxz    dx2    tot
  1  0.001  0.025  0.050  0.075  0.000  0.000  0.000  0.000  0.000  0.150
  2  0.001  0.025  0.050  0.075  0.000  0.000  0.000  0.000  0.000  0.150
tot  0.002  0.050  0.099  0.149  0.000  0.000  0.000  0.000  0.000  0.300
 
band   6 # energy    8.21490192 # occ.  0.00000000
 
ion      s     py     pz     px    dxy    dyz    dz2    dxz    dx2    tot
  1  0.000  0.003  0.097  0.052  0.000  0.000  0.000  0.000  0.000  0.152
  2  0.000  0.003  0.097  0.052  0.000  0.000  0.000  0.000  0.000  0.152
tot  0.000  0.005  0.194  0.104  0.000  0.000  0.000  0.000  0.000  0.303
 
band   7 # energy    8.21490601 # occ.  0.00000000
 
ion      s     py     pz     px    dxy    dyz    dz2    dxz    dx2    tot
  1  0.000  0.124  0.004  0.024  0.000  0.000  0.000  0.000  0.000  0.152
  2  0.000  0.124  0.004  0.024  0.000  0.000  0.000  0.000  0.000  0.152
tot  0.000  0.247  0.008  0.048  0.000  0.000  0.000  0.000  0.000  0.303
 
band   8 # energy    8.80114039 # occ.  0.00000000
 
ion      s     py     pz     px    dxy    dyz    dz2    dxz    dx2    tot
  1  0.351  0.001  0.002  0.003  0.000  0.000  0.000  0.000  0.000  0.356
  2  0.351  0.001  0.002  0.003  0.000  0.000  0.000  0.000  0.000  0.356
tot  0.702  0.002  0.004  0.006  0.000  0.000  0.000  0.000  0.000  0.713
 
band   9 # energy   13.25556703 # occ.  0.00000000
 
ion      s     py     pz     px    dxy    dyz    dz2    dxz    dx2    tot
  1  0.000  0.000  0.000  0.000  0.000  0.000  0.000  0.000  0.000  0.000
  2  0.000  0.000  0.000  0.000  0.000  0.000  0.000  0.000  0.000  0.000
tot  0.000  0.000  0.000  0.000  0.000  0.000  0.000  0.000  0.000  0.001
 
band  10 # energy   13.33128844 # occ.  0.00000000
 
ion      s     py     pz     px    dxy    dyz    dz2    dxz    dx2    tot
  1  0.000  0.000  0.000  0.000  0.000  0.000  0.000  0.000  0.000  0.000
  2  0.000  0.000  0.000  0.000  0.000  0.000  0.000  0.000  0.000  0.000
tot  0.000  0.000  0.000  0.000  0.000  0.000  0.000  0.000  0.000  0.000
 
band  11 # energy   13.52468400 # occ.  0.00000000
 
ion      s     py     pz     px    dxy    dyz    dz2    dxz    dx2    tot
  1  0.099  0.000  0.001  0.001  0.000  0.000  0.000  0.000  0.000  0.101
  2  0.099  0.000  0.001  0.001  0.000  0.000  0.000  0.000  0.000  0.101
tot  0.199  0.001  0.001  0.002  0.000  0.000  0.000  0.000  0.000  0.202
 
band  12 # energy   16.80811033 # occ.  0.00000000
 
ion      s     py     pz     px    dxy    dyz    dz2    dxz    dx2    tot
  1  0.000  0.025  0.014  0.000  0.000  0.000  0.000  0.000  0.000  0.039
  2  0.000  0.025  0.014  0.000  0.000  0.000  0.000  0.000  0.000  0.039
tot  0.000  0.050  0.028  0.000  0.000  0.000  0.000  0.000  0.000  0.078
 
band  13 # energy   16.80812724 # occ.  0.00000000
 
ion      s     py     pz     px    dxy    dyz    dz2    dxz    dx2    tot
  1  0.000  0.008  0.012  0.020  0.000  0.000  0.000  0.000  0.000  0.039
  2  0.000  0.008  0.012  0.020  0.000  0.000  0.000  0.000  0.000  0.039
tot  0.000  0.015  0.024  0.039  0.000  0.000  0.000  0.000  0.000  0.078
 
band  14 # energy   16.84067754 # occ.  0.00000000
 
ion      s     py     pz     px    dxy    dyz    dz2    dxz    dx2    tot
  1  0.001  0.006  0.013  0.019  0.000  0.000  0.000  0.000  0.000  0.039
  2  0.001  0.006  0.013  0.019  0.000  0.000  0.000  0.000  0.000  0.039
tot  0.002  0.013  0.025  0.038  0.000  0.000  0.000  0.000  0.000  0.077
 
band  15 # energy   20.94180980 # occ.  0.00000000
 
ion      s     py     pz     px    dxy    dyz    dz2    dxz    dx2    tot
  1  0.037  0.000  0.000  0.000  0.000  0.000  0.000  0.000  0.000  0.038
  2  0.037  0.000  0.000  0.000  0.000  0.000  0.000  0.000  0.000  0.038
tot  0.073  0.000  0.001  0.001  0.000  0.000  0.000  0.000  0.000  0.075
 
band  16 # energy   28.32897944 # occ.  0.00000000
 
ion      s     py     pz     px    dxy    dyz    dz2    dxz    dx2    tot
  1  0.000  0.008  0.006  0.005  0.000  0.000  0.000  0.000  0.000  0.018
  2  0.000  0.008  0.006  0.005  0.000  0.000  0.000  0.000  0.000  0.018
tot  0.000  0.015  0.012  0.010  0.000  0.000  0.000  0.000  0.000  0.037
 
band  17 # energy   28.32900198 # occ.  0.00000000
 
ion      s     py     pz     px    dxy    dyz    dz2    dxz    dx2    tot
  1  0.000  0.008  0.006  0.004  0.000  0.000  0.000  0.000  0.000  0.018
  2  0.000  0.008  0.006  0.004  0.000  0.000  0.000  0.000  0.000  0.018
tot  0.000  0.015  0.013  0.009  0.000  0.000  0.000  0.000  0.000  0.037
 
band  18 # energy   28.47366172 # occ.  0.00000000
 
ion      s     py     pz     px    dxy    dyz    dz2    dxz    dx2    tot
  1  0.000  0.002  0.003  0.005  0.000  0.000  0.000  0.000  0.000  0.010
  2  0.000  0.002  0.003  0.005  0.000  0.000  0.000  0.000  0.000  0.010
tot  0.000  0.003  0.007  0.010  0.000  0.000  0.000  0.000  0.000  0.020
 
band  19 # energy   29.43733405 # occ.  0.00000000
 
ion      s     py     pz     px    dxy    dyz    dz2    dxz    dx2    tot
  1  0.000  0.000  0.000  0.000  0.000  0.000  0.000  0.000  0.000  0.000
  2  0.000  0.000  0.000  0.000  0.000  0.000  0.000  0.000  0.000  0.000
tot  0.000  0.000  0.000  0.000  0.000  0.000  0.000  0.000  0.000  0.000
 
band  20 # energy   29.46443157 # occ.  0.00000000
 
ion      s     py     pz     px    dxy    dyz    dz2    dxz    dx2    tot
  1  0.000  0.002  0.005  0.007  0.000  0.000  0.000  0.000  0.000  0.014
  2  0.000  0.002  0.005  0.007  0.000  0.000  0.000  0.000  0.000  0.014
tot  0.000  0.005  0.009  0.014  0.000  0.000  0.000  0.000  0.000  0.028
 
band  21 # energy   31.04456306 # occ.  0.00000000
 
ion      s     py     pz     px    dxy    dyz    dz2    dxz    dx2    tot
  1  0.001  0.035  0.070  0.105  0.000  0.000  0.000  0.000  0.000  0.211