<?xml version="1.0" encoding="ISO-8859-1"?>
<modeling>
 <generator>
  <i name="program" type="string">vasp </i>
  <i name="version" type="string">5.4.1  </i>
  <i name="subversion" type="string">24Jun15 (build Feb 01 2016 23:38:11) complex                          parallel </i>
  <i name="platform" type="string">IFC91_impi </i>
  <i name="date" type="string">2016 08 04 </i>
  <i name="time" type="string">11:31:10 </i>
 </generator>
 <incar>
  <i type="string" name="PREC">accurate</i>
  <i type="string" name="ALGO"> Normal</i>
  <i type="int" name="ISPIN">     1</i>
  <i type="int" name="ICHARG">    11</i>
  <i type="int" name="NELM">   100</i>
  <i type="int" name="IBRION">    -1</i>
  <i name="EDIFF">      0.00010000</i>
  <i type="int" name="NSW">     0</i>
  <i type="int" name="ISIF">     3</i>
  <i type="int" name="ISYM">     0</i>
  <i name="ENCUT">    520.00000000</i>
  <i type="int" name="NBANDS">    39</i>
  <i type="string" name="LREAL"> Auto</i>
  <i type="int" name="ISMEAR">     0</i>
  <i name="SIGMA">      0.00100000</i>
  <i type="logical" name="LWAVE"> F  </i>
  <i type="logical" name="LCHARG"> F  </i>
  <i type="logical" name="LVHAR"> T  </i>
  <i type="logical" name="LORBIT"> F  </i>
  <i type="logical" name="LAECHG"> T  </i>
  <v type="int" name="KPOINT_BSE">    -1     0     0     0</v>
  <i type="int" name="NELM">   100</i>
 </incar>
 <kpoints>
  <varray name="kpointlist" >
   <v>       0.00000000       0.00000000       0.00000000 </v>
   <v>       0.02173913       0.00000000       0.02173913 </v>
   <v>       0.04347826       0.00000000       0.04347826 </v>
   <v>       0.06521739       0.00000000       0.06521739 </v>
   <v>       0.08695652       0.00000000       0.08695652 </v>
   <v>       0.10869565       0.00000000       0.10869565 </v>
   <v>       0.13043478       0.00000000       0.13043478 </v>
   <v>       0.15217391       0.00000000       0.15217391 </v>
   <v>       0.17391304       0.00000000       0.17391304 </v>
   <v>       0.19565217       0.00000000       0.19565217 </v>
   <v>       0.21739130       0.00000000       0.21739130 </v>
   <v>       0.23913043       0.00000000       0.23913043 </v>
   <v>       0.26086957       0.00000000       0.26086957 </v>
   <v>       0.28260870       0.00000000       0.28260870 </v>
   <v>       0.30434783       0.00000000       0.30434783 </v>
   <v>       0.32608696       0.00000000       0.32608696 </v>
   <v>       0.34782609       0.00000000       0.34782609 </v>
   <v>       0.36956522       0.00000000       0.36956522 </v>
   <v>       0.39130435       0.00000000       0.39130435 </v>
   <v>       0.41304348       0.00000000       0.41304348 </v>
   <v>       0.43478261       0.00000000       0.43478261 </v>
   <v>       0.45652174       0.00000000       0.45652174 </v>
   <v>       0.47826087       0.00000000       0.47826087 </v>
   <v>       0.50000000       0.00000000       0.50000000 </v>
   <v>       0.50000000       0.00000000       0.50000000 </v>
   <v>       0.50000000       0.02083333       0.52083333 </v>
   <v>       0.50000000       0.04166667       0.54166667 </v>
   <v>       0.50000000       0.06250000       0.56250000 </v>
   <v>       0.50000000       0.08333333       0.58333333 </v>
   <v>       0.50000000       0.10416667       0.60416667 </v>
   <v>       0.50000000       0.12500000       0.62500000 </v>
   <v>       0.50000000       0.14583333       0.64583333 </v>
   <v>       0.50000000       0.16666667       0.66666667 </v>
   <v>       0.50000000       0.18750000       0.68750000 </v>
   <v>       0.50000000       0.20833333       0.70833333 </v>
   <v>       0.50000000       0.22916667       0.72916667 </v>
   <v>       0.50000000       0.25000000       0.75000000 </v>
   <v>       0.50000000       0.25000000       0.75000000 </v>
   <v>       0.48611111       0.26388889       0.75000000 </v>
   <v>       0.47222222       0.27777778       0.75000000 </v>
   <v>       0.45833333       0.29166667       0.75000000 </v>
   <v>       0.44444444       0.30555556       0.75000000 </v>
   <v>       0.43055556       0.31944444       0.75000000 </v>
   <v>       0.41666667       0.33333333       0.75000000 </v>
   <v>       0.40277778       0.34722222       0.75000000 </v>
   <v>       0.38888889       0.36111111       0.75000000 </v>
   <v>       0.37500000       0.37500000       0.75000000 </v>
   <v>       0.37500000       0.37500000       0.75000000 </v>
   <v>       0.36000000       0.36000000       0.72000000 </v>
   <v>       0.34500000       0.34500000       0.69000000 </v>
   <v>       0.33000000       0.33000000       0.66000000 </v>
   <v>       0.31500000       0.31500000       0.63000000 </v>
   <v>       0.30000000       0.30000000       0.60000000 </v>
   <v>       0.28500000       0.28500000       0.57000000 </v>
   <v>       0.27000000       0.27000000       0.54000000 </v>
   <v>       0.25500000       0.25500000       0.51000000 </v>
   <v>       0.24000000       0.24000000       0.48000000 </v>
   <v>       0.22500000       0.22500000       0.45000000 </v>
   <v>       0.21000000       0.21000000       0.42000000 </v>
   <v>       0.19500000       0.19500000       0.39000000 </v>
   <v>       0.18000000       0.18000000       0.36000000 </v>
   <v>       0.16500000       0.16500000       0.33000000 </v>
   <v>       0.15000000       0.15000000       0.30000000 </v>
   <v>       0.13500000       0.13500000       0.27000000 </v>
   <v>       0.12000000       0.12000000       0.24000000 </v>
   <v>       0.10500000       0.10500000       0.21000000 </v>
   <v>       0.09000000       0.09000000       0.18000000 </v>
   <v>       0.07500000       0.07500000       0.15000000 </v>
   <v>       0.06000000       0.06000000       0.12000000 </v>
   <v>       0.04500000       0.04500000       0.09000000 </v>
   <v>       0.03000000       0.03000000       0.06000000 </v>
   <v>       0.01500000       0.01500000       0.03000000 </v>
   <v>       0.00000000       0.00000000       0.00000000 </v>
   <v>       0.00000000       0.00000000       0.00000000 </v>
   <v>       0.02500000       0.02500000       0.02500000 </v>
   <v>       0.05000000       0.05000000       0.05000000 </v>
   <v>       0.07500000       0.07500000       0.07500000 </v>
   <v>       0.10000000       0.10000000       0.10000000 </v>
   <v>       0.12500000       0.12500000       0.12500000 </v>
   <v>       0.15000000       0.15000000       0.15000000 </v>
   <v>       0.17500000       0.17500000       0.17500000 </v>
   <v>       0.20000000       0.20000000       0.20000000 </v>
   <v>       0.22500000       0.22500000       0.22500000 </v>
   <v>       0.25000000       0.25000000       0.25000000 </v>
   <v>       0.27500000       0.27500000       0.27500000 </v>
   <v>       0.30000000       0.30000000       0.30000000 </v>
   <v>       0.32500000       0.32500000       0.32500000 </v>
   <v>       0.35000000       0.35000000       0.35000000 </v>
   <v>       0.37500000       0.37500000       0.37500000 </v>
   <v>       0.40000000       0.40000000       0.40000000 </v>
   <v>       0.42500000       0.42500000       0.42500000 </v>
   <v>       0.45000000       0.45000000       0.45000000 </v>
   <v>       0.47500000       0.47500000       0.47500000 </v>
   <v>       0.50000000       0.50000000       0.50000000 </v>
   <v>       0.50000000       0.50000000       0.50000000 </v>
   <v>       0.50833333       0.48333333       0.50833333 </v>
   <v>       0.51666667       0.46666667       0.51666667 </v>
   <v>       0.52500000       0.45000000       0.52500000 </v>
   <v>       0.53333333       0.43333333       0.53333333 </v>
   <v>       0.54166667       0.41666667       0.54166667 </v>
   <v>       0.55000000       0.40000000       0.55000000 </v>
   <v>       0.55833333       0.38333333       0.55833333 </v>
   <v>       0.56666667       0.36666667       0.56666667 </v>
   <v>       0.57500000       0.35000000       0.57500000 </v>
   <v>       0.58333333       0.33333333       0.58333333 </v>
   <v>       0.59166667       0.31666667       0.59166667 </v>
   <v>       0.60000000       0.30000000       0.60000000 </v>
   <v>       0.60833333       0.28333333       0.60833333 </v>
   <v>       0.61666667       0.26666667       0.61666667 </v>
   <v>       0.62500000       0.25000000       0.62500000 </v>
   <v>       0.62500000       0.25000000       0.62500000 </v>
   <v>       0.61111111       0.25000000       0.63888889 </v>
   <v>       0.59722222       0.25000000       0.65277778 </v>
   <v>       0.58333333       0.25000000       0.66666667 </v>
   <v>       0.56944444       0.25000000       0.68055556 </v>
   <v>       0.55555556       0.25000000       0.69444444 </v>
   <v>       0.54166667       0.25000000       0.70833333 </v>
   <v>       0.52777778       0.25000000       0.72222222 </v>
   <v>       0.51388889       0.25000000       0.73611111 </v>
   <v>       0.50000000       0.25000000       0.75000000 </v>
   <v>       0.50000000       0.25000000       0.75000000 </v>
   <v>       0.50000000       0.26470588       0.73529412 </v>
   <v>       0.50000000       0.27941176       0.72058824 </v>
   <v>       0.50000000       0.29411765       0.70588235 </v>
   <v>       0.50000000       0.30882353       0.69117647 </v>
   <v>       0.50000000       0.32352941       0.67647059 </v>
   <v>       0.50000000       0.33823529       0.66176471 </v>
   <v>       0.50000000       0.35294118       0.64705882 </v>
   <v>       0.50000000       0.36764706       0.63235294 </v>
   <v>       0.50000000       0.38235294       0.61764706 </v>
   <v>       0.50000000       0.39705882       0.60294118 </v>
   <v>       0.50000000       0.41176471       0.58823529 </v>
   <v>       0.50000000       0.42647059       0.57352941 </v>
   <v>       0.50000000       0.44117647       0.55882353 </v>
   <v>       0.50000000       0.45588235       0.54411765 </v>
   <v>       0.50000000       0.47058824       0.52941176 </v>
   <v>       0.50000000       0.48529412       0.51470588 </v>
   <v>       0.50000000       0.50000000       0.50000000 </v>
   <v>       0.50000000       0.50000000       0.50000000 </v>
   <v>       0.49166667       0.49166667       0.51666667 </v>
   <v>       0.48333333       0.48333333       0.53333333 </v>
   <v>       0.47500000       0.47500000       0.55000000 </v>
   <v>       0.46666667       0.46666667       0.56666667 </v>
   <v>       0.45833333       0.45833333       0.58333333 </v>
   <v>       0.45000000       0.45000000       0.60000000 </v>
   <v>       0.44166667       0.44166667       0.61666667 </v>
   <v>       0.43333333       0.43333333       0.63333333 </v>
   <v>       0.42500000       0.42500000       0.65000000 </v>
   <v>       0.41666667       0.41666667       0.66666667 </v>
   <v>       0.40833333       0.40833333       0.68333333 </v>
   <v>       0.40000000       0.40000000       0.70000000 </v>
   <v>       0.39166667       0.39166667       0.71666667 </v>
   <v>       0.38333333       0.38333333       0.73333333 </v>
   <v>       0.37500000       0.37500000       0.75000000 </v>
   <v>       0.62500000       0.25000000       0.62500000 </v>
   <v>       0.61111111       0.22222222       0.61111111 </v>
   <v>       0.59722222       0.19444444       0.59722222 </v>
   <v>       0.58333333       0.16666667       0.58333333 </v>
   <v>       0.56944444       0.13888889       0.56944444 </v>
   <v>       0.55555556       0.11111111       0.55555556 </v>
   <v>       0.54166667       0.08333333       0.54166667 </v>
   <v>       0.52777778       0.05555556       0.52777778 </v>
   <v>       0.51388889       0.02777778       0.51388889 </v>
   <v>       0.50000000       0.00000000       0.50000000 </v>
  </varray>
  <varray name="weights" >
   <v>       0.00609756 </v>
   <v>       0.00609756 </v>
   <v>       0.00609756 </v>
   <v>       0.00609756 </v>
   <v>       0.00609756 </v>
   <v>       0.00609756 </v>
   <v>       0.00609756 </v>
   <v>       0.00609756 </v>
   <v>       0.00609756 </v>
   <v>       0.00609756 </v>
   <v>       0.00609756 </v>
   <v>       0.00609756 </v>
   <v>       0.00609756 </v>
   <v>       0.00609756 </v>
   <v>       0.00609756 </v>
   <v>       0.00609756 </v>
   <v>       0.00609756 </v>
   <v>       0.00609756 </v>
   <v>       0.00609756 </v>
   <v>       0.00609756 </v>
   <v>       0.00609756 </v>
   <v>       0.00609756 </v>
   <v>       0.00609756 </v>
   <v>       0.00609756 </v>
   <v>       0.00609756 </v>
   <v>       0.00609756 </v>
   <v>       0.00609756 </v>
   <v>       0.00609756 </v>
   <v>       0.00609756 </v>
   <v>       0.00609756 </v>
   <v>       0.00609756 </v>
   <v>       0.00609756 </v>
   <v>       0.00609756 </v>
   <v>       0.00609756 </v>
   <v>       0.00609756 </v>
   <v>       0.00609756 </v>
   <v>       0.00609756 </v>
   <v>       0.00609756 </v>
   <v>       0.00609756 </v>
   <v>       0.00609756 </v>
   <v>       0.00609756 </v>
   <v>       0.00609756 </v>
   <v>       0.00609756 </v>
   <v>       0.00609756 </v>
   <v>       0.00609756 </v>
   <v>       0.00609756 </v>
   <v>       0.00609756 </v>
   <v>       0.00609756 </v>
   <v>       0.00609756 </v>
   <v>       0.00609756 </v>
   <v>       0.00609756 </v>
   <v>       0.00609756 </v>
   <v>       0.00609756 </v>
   <v>       0.00609756 </v>
   <v>       0.00609756 </v>
   <v>       0.00609756 </v>
   <v>       0.00609756 </v>
   <v>       0.00609756 </v>
   <v>       0.00609756 </v>
   <v>       0.00609756 </v>
   <v>       0.00609756 </v>
   <v>       0.00609756 </v>
   <v>       0.00609756 </v>
   <v>       0.00609756 </v>
   <v>       0.00609756 </v>
   <v>       0.00609756 </v>
   <v>       0.00609756 </v>
   <v>       0.00609756 </v>
   <v>       0.00609756 </v>
   <v>       0.00609756 </v>
   <v>       0.00609756 </v>
   <v>       0.00609756 </v>
   <v>       0.00609756 </v>
   <v>       0.00609756 </v>
   <v>       0.00609756 </v>
   <v>       0.00609756 </v>
   <v>       0.00609756 </v>
   <v>       0.00609756 </v>
   <v>       0.00609756 </v>
   <v>       0.00609756 </v>
   <v>       0.00609756 </v>
   <v>       0.00609756 </v>
   <v>       0.00609756 </v>
   <v>       0.00609756 </v>
   <v>       0.00609756 </v>
   <v>       0.00609756 </v>
   <v>       0.00609756 </v>
   <v>       0.00609756 </v>
   <v>       0.00609756 </v>
   <v>       0.00609756 </v>
   <v>       0.00609756 </v>
   <v>       0.00609756 </v>
   <v>       0.00609756 </v>
   <v>       0.00609756 </v>
   <v>       0.00609756 </v>
   <v>       0.00609756 </v>
   <v>       0.00609756 </v>
   <v>       0.00609756 </v>
   <v>       0.00609756 </v>
   <v>       0.00609756 </v>
   <v>       0.00609756 </v>
   <v>       0.00609756 </v>
   <v>       0.00609756 </v>
   <v>       0.00609756 </v>
   <v>       0.00609756 </v>
   <v>       0.00609756 </v>
   <v>       0.00609756 </v>
   <v>       0.00609756 </v>
   <v>       0.00609756 </v>
   <v>       0.00609756 </v>
   <v>       0.00609756 </v>
   <v>       0.00609756 </v>
   <v>       0.00609756 </v>
   <v>       0.00609756 </v>
   <v>       0.00609756 </v>
   <v>       0.00609756 </v>
   <v>       0.00609756 </v>
   <v>       0.00609756 </v>
   <v>       0.00609756 </v>
   <v>       0.00609756 </v>
   <v>       0.00609756 </v>
   <v>       0.00609756 </v>
   <v>       0.00609756 </v>
   <v>       0.00609756 </v>
   <v>       0.00609756 </v>
   <v>       0.00609756 </v>
   <v>       0.00609756 </v>
   <v>       0.00609756 </v>
   <v>       0.00609756 </v>
   <v>       0.00609756 </v>
   <v>       0.00609756 </v>
   <v>       0.00609756 </v>
   <v>       0.00609756 </v>
   <v>       0.00609756 </v>
   <v>       0.00609756 </v>
   <v>       0.00609756 </v>
   <v>       0.00609756 </v>
   <v>       0.00609756 </v>
   <v>       0.00609756 </v>
   <v>       0.00609756 </v>
   <v>       0.00609756 </v>
   <v>       0.00609756 </v>
   <v>       0.00609756 </v>
   <v>       0.00609756 </v>
   <v>       0.00609756 </v>
   <v>       0.00609756 </v>
   <v>       0.00609756 </v>
   <v>       0.00609756 </v>
   <v>       0.00609756 </v>
   <v>       0.00609756 </v>
   <v>       0.00609756 </v>
   <v>       0.00609756 </v>
   <v>       0.00609756 </v>
   <v>       0.00609756 </v>
   <v>       0.00609756 </v>
   <v>       0.00609756 </v>
   <v>       0.00609756 </v>
   <v>       0.00609756 </v>
   <v>       0.00609756 </v>
   <v>       0.00609756 </v>
   <v>       0.00609756 </v>
   <v>       0.00609756 </v>
   <v>       0.00609756 </v>
   <v>       0.00609756 </v>
  </varray>
 </kpoints>
 <parameters>
  <separator name="general" >
   <i type="string" name="SYSTEM">unknown system</i>
   <i type="logical" name="LCOMPAT"> F  </i>
  </separator>
  <separator name="electronic" >
   <i type="string" name="PREC">accura</i>
   <i name="ENMAX">    520.00000000</i>
   <i name="ENAUG">    322.06900000</i>
   <i name="EDIFF">      0.00010000</i>
   <i type="int" name="IALGO">    38</i>
   <i type="int" name="IWAVPR">    10</i>
   <i type="int" name="NBANDS">    64</i>
   <i name="NELECT">      8.00000000</i>
   <i type="int" name="TURBO">     0</i>
   <i type="int" name="IRESTART">     0</i>
   <i type="int" name="NREBOOT">     0</i>
   <i type="int" name="NMIN">     0</i>
   <i name="EREF">      0.00000000</i>
   <separator name="electronic smearing" >
    <i type="int" name="ISMEAR">     0</i>
    <i name="SIGMA">      0.00100000</i>
    <i name="KSPACING">      0.50000000</i>
    <i type="logical" name="KGAMMA"> T  </i>
   </separator>
   <separator name="electronic projectors" >
    <i type="logical" name="LREAL"> T  </i>
    <v name="ROPT">     -0.00025000</v>
    <i type="int" name="LMAXPAW">  -100</i>
    <i type="int" name="LMAXMIX">     2</i>
    <i type="logical" name="NLSPLINE"> F  </i>
   </separator>
   <separator name="electronic startup" >
    <i type="int" name="ISTART">     0</i>
    <i type="int" name="ICHARG">    11</i>
    <i type="int" name="INIWAV">     1</i>
   </separator>
   <separator name="electronic spin" >
    <i type="int" name="ISPIN">     1</i>
    <i type="logical" name="LNONCOLLINEAR"> F  </i>
    <v name="MAGMOM">      1.00000000      1.00000000</v>
    <i name="NUPDOWN">     -1.00000000</i>
    <i type="logical" name="LSORBIT"> F  </i>
    <v name="SAXIS">      0.00000000      0.00000000      1.00000000</v>
    <i type="logical" name="LSPIRAL"> F  </i>
    <v name="QSPIRAL">      0.00000000      0.00000000      0.00000000</v>
    <i type="logical" name="LZEROZ"> F  </i>
   </separator>
   <separator name="electronic exchange-correlation" >
    <i type="logical" name="LASPH"> F  </i>
    <i type="logical" name="LMETAGGA"> F  </i>
   </separator>
   <separator name="electronic convergence" >
    <i type="int" name="NELM">   100</i>
    <i type="int" name="NELMDL">     0</i>
    <i type="int" name="NELMIN">     2</i>
    <i name="ENINI">    520.00000000</i>
    <separator name="electronic convergence detail" >
     <i type="logical" name="LDIAG"> T  </i>
     <i type="logical" name="LSUBROT"> F  </i>
     <i name="WEIMIN">      0.00000000</i>
     <i name="EBREAK">      0.00000039</i>
     <i name="DEPER">      0.30000000</i>
     <i type="int" name="NRMM">     4</i>
     <i name="TIME">      0.40000000</i>
    </separator>
   </separator>
   <separator name="electronic mixer" >
    <i name="AMIX">      0.40000000</i>
    <i name="BMIX">      1.00000000</i>
    <i name="AMIN">      0.10000000</i>
    <i name="AMIX_MAG">      1.60000000</i>
    <i name="BMIX_MAG">      1.00000000</i>
    <separator name="electronic mixer details" >
     <i type="int" name="IMIX">     4</i>
     <i type="logical" name="MIXFIRST"> F  </i>
     <i type="int" name="MAXMIX">   -45</i>
     <i name="WC">    100.00000000</i>
     <i type="int" name="INIMIX">     1</i>
     <i type="int" name="MIXPRE">     1</i>
     <i type="int" name="MREMOVE">     5</i>
    </separator>
   </separator>
   <separator name="electronic dipolcorrection" >
    <i type="logical" name="LDIPOL"> F  </i>
    <i type="logical" name="LMONO"> F  </i>
    <i type="int" name="IDIPOL">     0</i>
    <i name="EPSILON">      1.00000000</i>
    <v name="DIPOL">   -100.00000000   -100.00000000   -100.00000000</v>
    <i name="EFIELD">      0.00000000</i>
   </separator>
  </separator>
  <separator name="grids" >
   <i type="int" name="NGX">    30</i>
   <i type="int" name="NGY">    30</i>
   <i type="int" name="NGZ">    30</i>
   <i type="int" name="NGXF">    60</i>
   <i type="int" name="NGYF">    60</i>
   <i type="int" name="NGZF">    60</i>
   <i type="logical" name="ADDGRID"> F  </i>
  </separator>
  <separator name="ionic" >
   <i type="int" name="NSW">     0</i>
   <i type="int" name="IBRION">    -1</i>
   <i type="int" name="ISIF">     3</i>
   <i name="PSTRESS">      0.00000000</i>
   <i name="EDIFFG">      0.00100000</i>
   <i type="int" name="NFREE">     0</i>
   <i name="POTIM">      0.50000000</i>
   <i name="SMASS">     -3.00000000</i>
   <i name="SCALEE">      1.00000000</i>
  </separator>
  <separator name="ionic md" >
   <i name="TEBEG">      0.00010000</i>
   <i name="TEEND">      0.00010000</i>
   <i type="int" name="NBLOCK">     1</i>
   <i type="int" name="KBLOCK">     1</i>
   <i type="int" name="NPACO">   256</i>
   <i name="APACO">     16.00000000</i>
  </separator>
  <separator name="symmetry" >
   <i type="int" name="ISYM">     0</i>
   <i name="SYMPREC">      0.00001000</i>
  </separator>
  <separator name="dos" >
   <i type="logical" name="LORBIT"> F  </i>
   <v name="RWIGS">     -1.00000000</v>
   <i type="int" name="NEDOS">   301</i>
   <i name="EMIN">     10.00000000</i>
   <i name="EMAX">    -10.00000000</i>
   <i name="EFERMI">      0.00000000</i>
  </separator>
  <separator name="writing" >
   <i type="int" name="NWRITE">     2</i>
   <i type="logical" name="LWAVE"> F  </i>
   <i type="logical" name="LCHARG"> F  </i>
   <i type="logical" name="LPARD"> F  </i>
   <i type="logical" name="LVTOT"> F  </i>
   <i type="logical" name="LVHAR"> T  </i>
   <i type="logical" name="LELF"> F  </i>
   <i type="logical" name="LOPTICS"> F  </i>
   <v name="STM">      0.00000000      0.00000000      0.00000000      0.00000000      0.00000000      0.00000000      0.00000000</v>
  </separator>
  <separator name="performance" >
   <i type="int" name="NPAR">    32</i>
   <i type="int" name="NSIM">     4</i>
   <i type="int" name="NBLK">    -1</i>
   <i type="logical" name="LPLANE"> T  </i>
   <i type="logical" name="LSCALAPACK"> F  </i>
   <i type="logical" name="LSCAAWARE"> F  </i>
   <i type="logical" name="LSCALU"> F  </i>
   <i type="logical" name="LASYNC"> F  </i>
   <i type="logical" name="LORBITALREAL"> F  </i>
  </separator>
  <separator name="miscellaneous" >
   <i type="int" name="IDIOT">     3</i>
   <i type="logical" name="LMUSIC"> F  </i>
   <v name="POMASS">     28.08500000</v>
   <v name="DARWINR">      0.00000000</v>
   <v name="DARWINV">      1.00000000</v>
   <i type="logical" name="LCORR"> T  </i>
  </separator>
  <i type="logical" name="GGA_COMPAT"> T  </i>
  <i type="logical" name="LBERRY"> F  </i>
  <i type="int" name="ICORELEVEL">     0</i>
  <i type="logical" name="LDAU"> F  </i>
  <i type="int" name="I_CONSTRAINED_M">     0</i>
  <separator name="electronic exchange-correlation" >
   <i type="string" name="GGA">--</i>
   <i type="int" name="VOSKOWN">     0</i>
   <i type="logical" name="LHFCALC"> F  </i>
   <i type="string" name="PRECFOCK"></i>
   <i type="logical" name="LSYMGRAD"> F  </i>
   <i type="logical" name="LHFONE"> F  </i>
   <i type="logical" name="LRHFCALC"> F  </i>
   <i type="logical" name="LTHOMAS"> F  </i>
   <i type="logical" name="LMODELHF"> F  </i>
   <i name="ENCUT4O">     -1.00000000</i>
   <i type="int" name="EXXOEP">     0</i>
   <i type="int" name="FOURORBIT">     0</i>
   <i name="AEXX">      0.00000000</i>
   <i name="HFALPHA">      0.00000000</i>
   <i name="MCALPHA">      0.00000000</i>
   <i name="ALDAX">      1.00000000</i>
   <i name="AGGAX">      1.00000000</i>
   <i name="ALDAC">      1.00000000</i>
   <i name="AGGAC">      1.00000000</i>
   <i type="int" name="NKREDX">     1</i>
   <i type="int" name="NKREDY">     1</i>
   <i type="int" name="NKREDZ">     1</i>
   <i type="logical" name="SHIFTRED"> F  </i>
   <i type="logical" name="ODDONLY"> F  </i>
   <i type="logical" name="EVENONLY"> F  </i>
   <i type="int" name="LMAXFOCK">     0</i>
   <i type="int" name="NMAXFOCKAE">     0</i>
   <i type="logical" name="LFOCKAEDFT"> F  </i>
   <i name="HFSCREEN">      0.00000000</i>
   <i name="HFSCREENC">      0.00000000</i>
   <i type="int" name="NBANDSGWLOW">     0</i>
  </separator>
  <separator name="vdW DFT" >
   <i type="logical" name="LUSE_VDW"> F  </i>
   <i name="Zab_VDW">     -0.84910000</i>
   <i name="PARAM1">      0.12340000</i>
   <i name="PARAM2">      1.00000000</i>
   <i name="PARAM3">      0.00000000</i>
  </separator>
  <separator name="model GW" >
   <i type="int" name="MODEL_GW">     0</i>
   <i name="MODEL_EPS0">     12.27133992</i>
   <i name="MODEL_ALPHA">      1.00000000</i>
  </separator>
  <separator name="linear response parameters" >
   <i type="logical" name="LEPSILON"> F  </i>
   <i type="logical" name="LRPA"> F  </i>
   <i type="logical" name="LNABLA"> F  </i>
   <i type="logical" name="LVEL"> F  </i>
   <i type="int" name="KINTER">     0</i>
   <i name="CSHIFT">      0.10000000</i>
   <i name="OMEGAMAX">     -1.00000000</i>
   <i name="DEG_THRESHOLD">      0.00200000</i>
  </separator>
  <separator name="orbital magnetization" >
   <i type="logical" name="NUCIND"> F  </i>
   <v name="MAGPOS">      0.00000000      0.00000000      0.00000000</v>
   <i type="logical" name="LNICSALL"> T  </i>
   <i type="logical" name="ORBITALMAG"> F  </i>
   <i type="logical" name="LMAGBLOCH"> F  </i>
   <i type="logical" name="LCHIMAG"> F  </i>
   <i type="logical" name="LGAUGE"> T  </i>
   <i type="int" name="MAGATOM">     0</i>
   <v name="MAGDIPOL">      0.00000000      0.00000000      0.00000000</v>
   <v name="AVECCONST">      0.00000000      0.00000000      0.00000000</v>
  </separator>
  <separator name="response functions" >
   <i type="logical" name="LADDER"> F  </i>
   <i type="logical" name="LFXC"> F  </i>
   <i type="logical" name="LHARTREE"> T  </i>
   <i type="int" name="IBSE">     0</i>
   <v type="int" name="KPOINT">    -1     0     0     0</v>
   <i type="logical" name="LTCTE"> F  </i>
   <i type="logical" name="LTETE"> F  </i>
   <i type="logical" name="LTRIPLET"> F  </i>
   <i type="logical" name="LFXCEPS"> F  </i>
   <i type="logical" name="LFXHEG"> F  </i>
   <i type="int" name="NATURALO">     0</i>
   <i type="logical" name="L2ORDER"> F  </i>
   <i type="logical" name="LUSEW"> F  </i>
   <i name="ENCUTGW">     -2.00000000</i>
   <i name="ENCUTGWSOFT">     -2.00000000</i>
   <i name="ENCUTLF">     -1.00000000</i>
   <i type="int" name="LMAXMP2">    -1</i>
   <i name="SCISSOR">      0.00000000</i>
   <i type="int" name="NOMEGA">     0</i>
   <i type="int" name="NOMEGAR">     0</i>
   <i type="int" name="NBANDSGW">    -1</i>
   <i type="int" name="NBANDSO">    -1</i>
   <i type="int" name="NBANDSV">    -1</i>
   <i type="int" name="NELM">   100</i>
   <i type="int" name="NELMHF">     1</i>
   <i type="int" name="DIM">     3</i>
   <i type="int" name="ANTIRES">     0</i>
   <i name="OMEGAMAX">    -30.00000000</i>
   <i name="OMEGAMIN">    -30.00000000</i>
   <i name="OMEGATL">   -200.00000000</i>
   <i type="int" name="OMEGAGRID">     0</i>
   <i name="CSHIFT">     -0.10000000</i>
   <i type="logical" name="SELFENERGY"> F  </i>
   <i type="logical" name="LSPECTRAL"> F  </i>
   <i type="logical" name="LSPECTRALGW"> F  </i>
   <i type="logical" name="LSINGLES"> F  </i>
   <i type="logical" name="LFERMIGW"> F  </i>
   <i type="logical" name="ODDONLYGW"> F  </i>
   <i type="logical" name="EVENONLYGW"> F  </i>
   <i type="int" name="NKREDLFX">     1</i>
   <i type="int" name="NKREDLFY">     1</i>
   <i type="int" name="NKREDLFZ">     1</i>
   <i type="int" name="MAXMEM">  1800</i>
   <i type="int" name="TELESCOPE">     0</i>
   <i type="int" name="TAUPAR">     1</i>
   <i type="int" name="OMEGAPAR">    -1</i>
   <i name="LAMBDA">      1.00000000</i>
  </separator>
  <separator name="External order field" >
   <i name="OFIELD_KAPPA">      0.00000000</i>
   <v name="OFIELD_K">      0.00000000      0.00000000      0.00000000</v>
   <i name="OFIELD_Q6_NEAR">      0.00000000</i>
   <i name="OFIELD_Q6_FAR">      0.00000000</i>
   <i name="OFIELD_A">      0.00000000</i>
  </separator>
 </parameters>
 <atominfo>
  <atoms>       2 </atoms>
  <types>       1 </types>
  <array name="atoms" >
   <dimension dim="1">ion</dimension>
   <field type="string">element</field>
   <field type="int">atomtype</field>
   <set>
    <rc><c>Si</c><c>   1</c></rc>
    <rc><c>Si</c><c>   1</c></rc>
   </set>
  </array>
  <array name="atomtypes" >
   <dimension dim="1">type</dimension>
   <field type="int">atomspertype</field>
   <field type="string">element</field>
   <field>mass</field>
   <field>valence</field>
   <field type="string">pseudopotential</field>
   <set>
    <rc><c>   2</c><c>Si</c><c>     28.08500000</c><c>      4.00000000</c><c> PAW_PBE Si 05Jan2001                   </c></rc>
   </set>
  </array>
 </atominfo>
 <structure name="initialpos" >
  <crystal>
   <varray name="basis" >
    <v>       3.86748400       0.00000000       0.00000000 </v>
    <v>       1.93374200       3.34934000       0.00000000 </v>
    <v>       0.00000000      -2.23289100       3.15778800 </v>
   </varray>
   <i name="volume">     40.90446642 </i>
   <varray name="rec_basis" >
    <v>       0.25856603      -0.14928314      -0.10555901 </v>
    <v>       0.00000000       0.29856628       0.21111803 </v>
    <v>       0.00000000       0.00000000       0.31667737 </v>
   </varray>
  </crystal>
  <varray name="positions" >
   <v>       0.00000000       0.00000000       0.00000000 </v>
   <v>       0.75000000       0.50000000       0.75000000 </v>
  </varray>
 </structure>
 <calculation>
  <scstep>
   <time name="dav">   17.94   17.97</time>
   <time name="total">   18.02   18.06</time>
   <energy>
    <i name="alphaZ">      3.29187312 </i>
    <i name="ewald">   -226.91498689 </i>
    <i name="hartreedc">    -15.19238167 </i>
    <i name="XCdc">    -18.05989530 </i>
    <i name="pawpsdc">     73.61108056 </i>
    <i name="pawaedc">    -38.63077485 </i>
    <i name="eentropy">     -0.00000012 </i>
    <i name="bandstr">     20.43392860 </i>
    <i name="atom">    206.13270273 </i>
    <i name="e_fr_energy">      4.67154618 </i>
    <i name="e_wo_entrp">      4.67154631 </i>
    <i name="e_0_energy">      4.67154624 </i>
   </energy>
  </scstep>
  <scstep>
   <time name="dav">   25.78   25.81</time>
   <time name="total">   25.79   25.81</time>
   <energy>
    <i name="e_fr_energy">    -10.43320455 </i>
    <i name="e_wo_entrp">    -10.43320455 </i>
    <i name="e_0_energy">    -10.43320455 </i>
   </energy>
  </scstep>
  <scstep>
   <time name="dav">   19.63   19.67</time>
   <time name="total">   19.63   19.67</time>
   <energy>
    <i name="e_fr_energy">    -10.57200051 </i>
    <i name="e_wo_entrp">    -10.57200051 </i>
    <i name="e_0_energy">    -10.57200051 </i>
   </energy>
  </scstep>
  <scstep>
   <time name="dav">   25.71   25.75</time>
   <time name="total">   25.72   25.76</time>
   <energy>
    <i name="e_fr_energy">    -10.57207898 </i>
    <i name="e_wo_entrp">    -10.57207898 </i>
    <i name="e_0_energy">    -10.57207898 </i>
   </energy>
  </scstep>
  <scstep>
   <time name="dav">   16.27   16.30</time>
   <time name="total">   16.27   16.30</time>
   <energy>
    <i name="e_fr_energy">    -10.57207908 </i>
    <i name="e_wo_entrp">    -10.57207908 </i>
    <i name="e_0_energy">    -10.57207908 </i>
   </energy>
  </scstep>
  <scstep>
   <time name="dav">   22.27   22.34</time>
   <time name="total">   22.28   22.35</time>
   <energy>
    <i name="alphaZ">      3.29187312 </i>
    <i name="ewald">   -226.91498689 </i>
    <i name="hartreedc">    -15.19238167 </i>
    <i name="XCdc">    -18.05989530 </i>
    <i name="pawpsdc">     73.61108056 </i>
    <i name="pawaedc">    -38.63077485 </i>
    <i name="eentropy">      0.00000000 </i>
    <i name="bandstr">      5.19030321 </i>
    <i name="atom">    206.13270273 </i>
    <i name="e_fr_energy">    -10.57207908 </i>
    <i name="e_wo_entrp">    -10.57207908 </i>
    <i name="e_0_energy">    -10.57207908 </i>
   </energy>
  </scstep>
  <structure>
   <crystal>
    <varray name="basis" >
     <v>       3.86748400       0.00000000       0.00000000 </v>
     <v>       1.93374200       3.34934000       0.00000000 </v>
     <v>       0.00000000      -2.23289100       3.15778800 </v>
    </varray>
    <i name="volume">     40.90446642 </i>
    <varray name="rec_basis" >
     <v>       0.25856603      -0.14928314      -0.10555901 </v>
     <v>       0.00000000       0.29856628       0.21111803 </v>
     <v>       0.00000000       0.00000000       0.31667737 </v>
    </varray>
   </crystal>
   <varray name="positions" >
    <v>       0.00000000       0.00000000       0.00000000 </v>
    <v>       0.75000000       0.50000000       0.75000000 </v>
   </varray>
  </structure>
  <varray name="forces" >
   <v>       0.17228468       0.17162915      -0.08955467 </v>
   <v>      -0.17228468      -0.17162915       0.08955467 </v>
  </varray>
  <varray name="stress" >
   <v>      44.41878385      16.05351740      29.81264993 </v>
   <v>      16.05351747      14.92969528      13.52782670 </v>
   <v>      29.81264989      13.52782663      33.85915125 </v>
  </varray>
  <energy>
   <i name="e_fr_energy">    -10.57207908 </i>
   <i name="e_wo_entrp">    -10.57207908 </i>
   <i name="e_0_energy">      0.00000000 </i>
  </energy>
  <time name="totalsc">  130.64  130.93</time>
  <eigenvalues>
   <array>
    <dimension dim="1">band</dimension>
    <dimension dim="2">kpoint</dimension>
    <dimension dim="3">spin</dimension>
    <field>eigene</field>
    <field>occ</field>
    <set>
     <set comment="spin 1">
      <set comment="kpoint 1">
       <r>   -6.1985    1.0000 </r>
       <r>    5.6142    1.0000 </r>
       <r>    5.6142    1.0000 </r>
       <r>    5.6142    1.0000 </r>
       <r>    8.1703    0.0000 </r>
       <r>    8.1703    0.0000 </r>
       <r>    8.1703    0.0000 </r>
       <r>    8.7436    0.0000 </r>
       <r>   13.3223    0.0000 </r>
       <r>   13.3223    0.0000 </r>
       <r>   13.4883    0.0000 </r>
       <r>   16.7939    0.0000 </r>
       <r>   16.7939    0.0000 </r>
       <r>   16.7939    0.0000 </r>
       <r>   20.8824    0.0000 </r>
       <r>   28.4633    0.0000 </r>
       <r>   28.4633    0.0000 </r>
       <r>   28.4633    0.0000 </r>
       <r>   29.5439    0.0000 </r>
       <r>   29.5439    0.0000 </r>
       <r>   30.9889    0.0000 </r>
       <r>   30.9889    0.0000 </r>
       <r>   30.9889    0.0000 </r>
       <r>   34.5197    0.0000 </r>
       <r>   34.5197    0.0000 </r>
       <r>   34.5197    0.0000 </r>
       <r>   40.1009    0.0000 </r>
       <r>   40.1009    0.0000 </r>
       <r>   40.1009    0.0000 </r>
       <r>   43.4022    0.0000 </r>
       <r>   43.8763    0.0000 </r>
       <r>   43.8764    0.0000 </r>
       <r>   45.7696    0.0000 </r>
       <r>   45.7697    0.0000 </r>
       <r>   47.2618    0.0000 </r>
       <r>   47.2618    0.0000 </r>
       <r>   47.2618    0.0000 </r>
       <r>   49.0115    0.0000 </r>
       <r>   49.0115    0.0000 </r>
       <r>   49.0115    0.0000 </r>
       <r>   49.4687    0.0000 </r>
       <r>   50.0780    0.0000 </r>
       <r>   50.0781    0.0000 </r>
       <r>   50.0781    0.0000 </r>
       <r>   50.0799    0.0000 </r>
       <r>   50.0799    0.0000 </r>
       <r>   50.0800    0.0000 </r>
       <r>   51.5005    0.0000 </r>
       <r>   51.5005    0.0000 </r>
       <r>   51.5005    0.0000 </r>
       <r>   55.3486    0.0000 </r>
       <r>   56.5198    0.0000 </r>
       <r>   56.5198    0.0000 </r>
       <r>   56.5198    0.0000 </r>
       <r>   56.8035    0.0000 </r>
       <r>   56.8035    0.0000 </r>
       <r>   56.8035    0.0000 </r>
       <r>   61.6054    0.0000 </r>
       <r>   62.4602    0.0000 </r>
       <r>   71.2451    0.0000 </r>
       <r>   71.2451    0.0000 </r>
       <r>   74.2559    0.0000 </r>
       <r>   74.2560    0.0000 </r>
       <r>   74.2560    0.0000 </r>
      </set>
      <set comment="kpoint 2">
       <r>   -6.1904    1.0000 </r>
       <r>    5.5555    1.0000 </r>
       <r>    5.5796    1.0000 </r>
       <r>    5.5796    1.0000 </r>
       <r>    8.1501    0.0000 </r>
       <r>    8.2149    0.0000 </r>
       <r>    8.2149    0.0000 </r>
       <r>    8.8011    0.0000 </r>
       <r>   13.2556    0.0000 </r>
       <r>   13.3313    0.0000 </r>
       <r>   13.5247    0.0000 </r>
       <r>   16.8081    0.0000 </r>
       <r>   16.8081    0.0000 </r>
       <r>   16.8407    0.0000 </r>
       <r>   20.9418    0.0000 </r>
       <r>   28.3290    0.0000 </r>
       <r>   28.3290    0.0000 </r>
       <r>   28.4737    0.0000 </r>
       <r>   29.4373    0.0000 </r>
       <r>   29.4644    0.0000 </r>
       <r>   31.0446    0.0000 </r>
       <r>   31.0790    0.0000 </r>
       <r>   31.0790    0.0000 </r>
       <r>   34.5821    0.0000 </r>
       <r>   34.5821    0.0000 </r>
       <r>   34.6314    0.0000 </r>
       <r>   40.0418    0.0000 </r>
       <r>   40.0418    0.0000 </r>
       <r>   40.0424    0.0000 </r>
       <r>   43.4453    0.0000 </r>
       <r>   43.7310    0.0000 </r>
       <r>   43.8548    0.0000 </r>
       <r>   45.5481    0.0000 </r>
       <r>   45.7576    0.0000 </r>
       <r>   47.2533    0.0000 </r>
       <r>   47.2889    0.0000 </r>
       <r>   47.2889    0.0000 </r>
       <r>   48.7917    0.0000 </r>
       <r>   48.7918    0.0000 </r>
       <r>   49.0378    0.0000 </r>
       <r>   49.7251    0.0000 </r>
       <r>   49.7358    0.0000 </r>
       <r>   49.7358    0.0000 </r>
       <r>   50.1191    0.0000 </r>
       <r>   50.1891    0.0000 </r>
       <r>   50.2632    0.0000 </r>
       <r>   50.2632    0.0000 </r>
       <r>   51.5433    0.0000 </r>
       <r>   51.9383    0.0000 </r>
       <r>   51.9383    0.0000 </r>
       <r>   55.1297    0.0000 </r>
       <r>   55.9151    0.0000 </r>
       <r>   55.9151    0.0000 </r>
       <r>   56.7514    0.0000 </r>
       <r>   56.7637    0.0000 </r>
       <r>   57.4548    0.0000 </r>
       <r>   57.4548    0.0000 </r>
       <r>   61.6990    0.0000 </r>
       <r>   62.5148    0.0000 </r>
       <r>   70.7942    0.0000 </r>
       <r>   71.2510    0.0000 </r>
       <r>   74.2134    0.0000 </r>
       <r>   74.2135    0.0000 </r>
       <r>   74.4215    0.0000 </r>
      </set>
      <set comment="kpoint 3">
       <r>   -6.1660    1.0000 </r>
       <r>    5.3913    1.0000 </r>
       <r>    5.4826    1.0000 </r>
       <r>    5.4826    1.0000 </r>
       <r>    8.0913    0.0000 </r>
       <r>    8.3419    0.0000 </r>
       <r>    8.3419    0.0000 </r>
       <r>    8.9601    0.0000 </r>
       <r>   13.0720    0.0000 </r>
       <r>   13.3584    0.0000 </r>
       <r>   13.6319    0.0000 </r>
       <r>   16.8507    0.0000 </r>
       <r>   16.8507    0.0000 </r>
       <r>   16.9677    0.0000 </r>
       <r>   21.1182    0.0000 </r>
       <r>   27.9805    0.0000 </r>
       <r>   27.9805    0.0000 </r>
       <r>   28.5049    0.0000 </r>
       <r>   29.1431    0.0000 </r>
       <r>   29.2560    0.0000 </r>
       <r>   31.1819    0.0000 </r>
       <r>   31.2947    0.0000 </r>
       <r>   31.2947    0.0000 </r>
       <r>   34.7695    0.0000 </r>
       <r>   34.7695    0.0000 </r>
       <r>   34.9404    0.0000 </r>
       <r>   39.8673    0.0000 </r>
       <r>   39.8673    0.0000 </r>
       <r>   39.8734    0.0000 </r>
       <r>   43.3284    0.0000 </r>
       <r>   43.5547    0.0000 </r>
       <r>   43.7921    0.0000 </r>
       <r>   45.0329    0.0000 </r>
       <r>   45.7236    0.0000 </r>
       <r>   47.2236    0.0000 </r>
       <r>   47.3602    0.0000 </r>
       <r>   47.3602    0.0000 </r>
       <r>   48.2844    0.0000 </r>
       <r>   48.2844    0.0000 </r>
       <r>   49.1068    0.0000 </r>
       <r>   49.2156    0.0000 </r>
       <r>   49.2157    0.0000 </r>
       <r>   50.2347    0.0000 </r>
       <r>   50.3678    0.0000 </r>
       <r>   50.4892    0.0000 </r>
       <r>   50.6440    0.0000 </r>
       <r>   50.6440    0.0000 </r>
       <r>   51.6701    0.0000 </r>
       <r>   52.7684    0.0000 </r>
       <r>   52.7684    0.0000 </r>
       <r>   54.7070    0.0000 </r>
       <r>   55.2370    0.0000 </r>
       <r>   55.2370    0.0000 </r>
       <r>   56.6100    0.0000 </r>
       <r>   57.2676    0.0000 </r>
       <r>   58.2738    0.0000 </r>
       <r>   58.2739    0.0000 </r>
       <r>   61.9660    0.0000 </r>
       <r>   62.6759    0.0000 </r>
       <r>   69.7646    0.0000 </r>
       <r>   71.2684    0.0000 </r>
       <r>   74.0598    0.0000 </r>
       <r>   74.0598    0.0000 </r>
       <r>   74.6727    0.0000 </r>
      </set>
      <set comment="kpoint 4">
       <r>   -6.1254    1.0000 </r>
       <r>    5.1484    1.0000 </r>
       <r>    5.3390    1.0000 </r>
       <r>    5.3390    1.0000 </r>
       <r>    7.9989    0.0000 </r>
       <r>    8.5354    0.0000 </r>
       <r>    8.5355    0.0000 </r>
       <r>    9.1882    0.0000 </r>
       <r>   12.8108    0.0000 </r>
       <r>   13.4035    0.0000 </r>
       <r>   13.8048    0.0000 </r>
       <r>   16.9216    0.0000 </r>
       <r>   16.9217    0.0000 </r>
       <r>   17.1467    0.0000 </r>
       <r>   21.4057    0.0000 </r>
       <r>   27.5086    0.0000 </r>
       <r>   27.5086    0.0000 </r>
       <r>   28.5576    0.0000 </r>
       <r>   28.7156    0.0000 </r>
       <r>   28.9676    0.0000 </r>
       <r>   31.3519    0.0000 </r>
       <r>   31.5466    0.0000 </r>
       <r>   31.5466    0.0000 </r>
       <r>   35.0800    0.0000 </r>
       <r>   35.0800    0.0000 </r>
       <r>   35.3908    0.0000 </r>
       <r>   39.5857    0.0000 </r>
       <r>   39.5857    0.0000 </r>
       <r>   39.6087    0.0000 </r>
       <r>   42.7397    0.0000 </r>
       <r>   43.6242    0.0000 </r>
       <r>   43.6927    0.0000 </r>
       <r>   44.5051    0.0000 </r>
       <r>   45.6746    0.0000 </r>
       <r>   47.1669    0.0000 </r>
       <r>   47.4147    0.0000 </r>
       <r>   47.4147    0.0000 </r>
       <r>   47.6648    0.0000 </r>
       <r>   47.6648    0.0000 </r>
       <r>   48.8161    0.0000 </r>
       <r>   48.8161    0.0000 </r>
       <r>   49.2142    0.0000 </r>
       <r>   50.4221    0.0000 </r>
       <r>   50.8981    0.0000 </r>
       <r>   51.0875    0.0000 </r>
       <r>   51.0876    0.0000 </r>
       <r>   51.2050    0.0000 </r>
       <r>   51.8758    0.0000 </r>
       <r>   53.7009    0.0000 </r>
       <r>   53.7010    0.0000 </r>
       <r>   54.2678    0.0000 </r>
       <r>   54.6074    0.0000 </r>
       <r>   54.6074    0.0000 </r>
       <r>   56.4152    0.0000 </r>
       <r>   57.8648    0.0000 </r>
       <r>   59.1424    0.0000 </r>
       <r>   59.1424    0.0000 </r>
       <r>   62.3744    0.0000 </r>
       <r>   62.9369    0.0000 </r>
       <r>   68.5074    0.0000 </r>
       <r>   71.2967    0.0000 </r>
       <r>   73.7242    0.0000 </r>
       <r>   73.7243    0.0000 </r>
       <r>   74.8368    0.0000 </r>
      </set>
      <set comment="kpoint 5">
       <r>   -6.0687    1.0000 </r>
       <r>    4.8527    1.0000 </r>
       <r>    5.1656    1.0000 </r>
       <r>    5.1656    1.0000 </r>
       <r>    7.8798    0.0000 </r>
       <r>    8.7786    0.0000 </r>
       <r>    8.7786    0.0000 </r>
       <r>    9.4469    0.0000 </r>
       <r>   12.5188    0.0000 </r>
       <r>   13.4666    0.0000 </r>
       <r>   14.0362    0.0000 </r>
       <r>   17.0206    0.0000 </r>
       <r>   17.0207    0.0000 </r>
       <r>   17.3524    0.0000 </r>
       <r>   21.7941    0.0000 </r>
       <r>   26.9734    0.0000 </r>
       <r>   26.9734    0.0000 </r>
       <r>   28.2048    0.0000 </r>
       <r>   28.6316    0.0000 </r>
       <r>   28.6326    0.0000 </r>
       <r>   31.5221    0.0000 </r>
       <r>   31.7828    0.0000 </r>
       <r>   31.7828    0.0000 </r>
       <r>   35.5041    0.0000 </r>
       <r>   35.5041    0.0000 </r>
       <r>   35.9292    0.0000 </r>
       <r>   39.2083    0.0000 </r>
       <r>   39.2084    0.0000 </r>
       <r>   39.2611    0.0000 </r>
       <r>   42.0301    0.0000 </r>
       <r>   43.3209    0.0000 </r>
       <r>   43.5633    0.0000 </r>
       <r>   44.3843    0.0000 </r>
       <r>   45.6202    0.0000 </r>
       <r>   46.8909    0.0000 </r>
       <r>   46.8909    0.0000 </r>
       <r>   47.0828    0.0000 </r>
       <r>   47.5269    0.0000 </r>
       <r>   47.5270    0.0000 </r>
       <r>   48.5812    0.0000 </r>
       <r>   48.5812    0.0000 </r>
       <r>   49.3574    0.0000 </r>
       <r>   50.6747    0.0000 </r>
       <r>   51.3088    0.0000 </r>
       <r>   51.5580    0.0000 </r>
       <r>   51.5580    0.0000 </r>
       <r>   52.1265    0.0000 </r>
       <r>   52.1537    0.0000 </r>
       <r>   53.8982    0.0000 </r>
       <r>   54.0314    0.0000 </r>
       <r>   54.0314    0.0000 </r>
       <r>   54.6820    0.0000 </r>
       <r>   54.6820    0.0000 </r>
       <r>   56.2108    0.0000 </r>
       <r>   58.5193    0.0000 </r>
       <r>   60.0566    0.0000 </r>
       <r>   60.0566    0.0000 </r>
       <r>   62.8882    0.0000 </r>
       <r>   63.2876    0.0000 </r>
       <r>   67.1674    0.0000 </r>
       <r>   71.3333    0.0000 </r>
       <r>   73.1624    0.0000 </r>
       <r>   73.1624    0.0000 </r>
       <r>   74.4794    0.0000 </r>
      </set>
      <set comment="kpoint 6">
       <r>   -5.9958    1.0000 </r>
       <r>    4.5233    1.0000 </r>
       <r>    4.9756    1.0000 </r>
       <r>    4.9756    1.0000 </r>
       <r>    7.7413    0.0000 </r>
       <r>    9.0578    0.0000 </r>
       <r>    9.0578    0.0000 </r>
       <r>    9.6916    0.0000 </r>
       <r>   12.2478    0.0000 </r>
       <r>   13.5478    0.0000 </r>
       <r>   14.3183    0.0000 </r>
       <r>   17.1474    0.0000 </r>
       <r>   17.1474    0.0000 </r>
       <r>   17.5702    0.0000 </r>
       <r>   22.2694    0.0000 </r>
       <r>   26.4075    0.0000 </r>
       <r>   26.4075    0.0000 </r>
       <r>   27.6456    0.0000 </r>
       <r>   28.2657    0.0000 </r>
       <r>   28.7318    0.0000 </r>
       <r>   31.6748    0.0000 </r>
       <r>   31.9865    0.0000 </r>
       <r>   31.9865    0.0000 </r>
       <r>   36.0243    0.0000 </r>
       <r>   36.0243    0.0000 </r>
       <r>   36.5160    0.0000 </r>
       <r>   38.7489    0.0000 </r>
       <r>   38.7489    0.0000 </r>
       <r>   38.8383    0.0000 </r>
       <r>   41.2449    0.0000 </r>
       <r>   42.7470    0.0000 </r>
       <r>   43.4111    0.0000 </r>
       <r>   44.6052    0.0000 </r>
       <r>   45.5730    0.0000 </r>
       <r>   46.1981    0.0000 </r>
       <r>   46.1981    0.0000 </r>
       <r>   46.9744    0.0000 </r>
       <r>   47.4332    0.0000 </r>
       <r>   47.4332    0.0000 </r>
       <r>   48.5498    0.0000 </r>
       <r>   48.5498    0.0000 </r>
       <r>   49.5321    0.0000 </r>
       <r>   50.9851    0.0000 </r>
       <r>   51.5717    0.0000 </r>
       <r>   52.0328    0.0000 </r>
       <r>   52.0328    0.0000 </r>
       <r>   52.4963    0.0000 </r>
       <r>   53.0626    0.0000 </r>
       <r>   53.5399    0.0000 </r>
       <r>   53.5399    0.0000 </r>
       <r>   53.7159    0.0000 </r>
       <r>   55.6812    0.0000 </r>
       <r>   55.6812    0.0000 </r>
       <r>   56.0497    0.0000 </r>
       <r>   59.2227    0.0000 </r>
       <r>   61.0151    0.0000 </r>
       <r>   61.0151    0.0000 </r>
       <r>   63.4685    0.0000 </r>
       <r>   63.7169    0.0000 </r>
       <r>   65.8148    0.0000 </r>
       <r>   71.3769    0.0000 </r>
       <r>   72.4263    0.0000 </r>
       <r>   72.4264    0.0000 </r>
       <r>   73.5845    0.0000 </r>
      </set>
      <set comment="kpoint 7">
       <r>   -5.9068    1.0000 </r>
       <r>    4.1724    1.0000 </r>
       <r>    4.7783    1.0000 </r>
       <r>    4.7783    1.0000 </r>
       <r>    7.5905    0.0000 </r>
       <r>    9.3634    0.0000 </r>
       <r>    9.3634    0.0000 </r>
       <r>    9.8629    0.0000 </r>
       <r>   12.0633    0.0000 </r>
       <r>   13.6469    0.0000 </r>
       <r>   14.6433    0.0000 </r>
       <r>   17.3012    0.0000 </r>
       <r>   17.3013    0.0000 </r>
       <r>   17.7949    0.0000 </r>
       <r>   22.8159    0.0000 </r>
       <r>   25.8290    0.0000 </r>
       <r>   25.8290    0.0000 </r>
       <r>   27.0598    0.0000 </r>
       <r>   27.8800    0.0000 </r>
       <r>   28.8574    0.0000 </r>
       <r>   31.7992    0.0000 </r>
       <r>   32.1585    0.0000 </r>
       <r>   32.1585    0.0000 </r>
       <r>   36.6161    0.0000 </r>
       <r>   36.6161    0.0000 </r>
       <r>   37.1227    0.0000 </r>
       <r>   38.2242    0.0000 </r>
       <r>   38.2242    0.0000 </r>
       <r>   38.3449    0.0000 </r>
       <r>   40.4133    0.0000 </r>
       <r>   42.1728    0.0000 </r>
       <r>   43.2429    0.0000 </r>
       <r>   44.9139    0.0000 </r>
       <r>   45.5286    0.0000 </r>
       <r>   45.5286    0.0000 </r>
       <r>   45.5465    0.0000 </r>
       <r>   46.8459    0.0000 </r>
       <r>   47.2276    0.0000 </r>
       <r>   47.2276    0.0000 </r>
       <r>   48.6762    0.0000 </r>
       <r>   48.6763    0.0000 </r>
       <r>   49.7339    0.0000 </r>
       <r>   51.3462    0.0000 </r>
       <r>   51.5398    0.0000 </r>
       <r>   52.4299    0.0000 </r>
       <r>   52.4299    0.0000 </r>
       <r>   52.8964    0.0000 </r>
       <r>   53.2151    0.0000 </r>
       <r>   53.2151    0.0000 </r>
       <r>   53.8460    0.0000 </r>
       <r>   53.9162    0.0000 </r>
       <r>   56.0266    0.0000 </r>
       <r>   56.6949    0.0000 </r>
       <r>   56.6949    0.0000 </r>
       <r>   59.9700    0.0000 </r>
       <r>   62.0161    0.0000 </r>
       <r>   62.0161    0.0000 </r>
       <r>   63.9161    0.0000 </r>
       <r>   64.2134    0.0000 </r>
       <r>   64.6598    0.0000 </r>
       <r>   71.4223    0.0000 </r>
       <r>   71.5961    0.0000 </r>
       <r>   71.5961    0.0000 </r>
       <r>   72.6486    0.0000 </r>
      </set>
      <set comment="kpoint 8">
       <r>   -5.8019    1.0000 </r>
       <r>    3.8079    1.0000 </r>
       <r>    4.5801    1.0000 </r>
       <r>    4.5801    1.0000 </r>
       <r>    7.4335    0.0000 </r>
       <r>    9.6889    0.0000 </r>
       <r>    9.6889    0.0000 </r>
       <r>    9.8937    0.0000 </r>
       <r>   12.0369    0.0000 </r>
       <r>   13.7641    0.0000 </r>
       <r>   15.0044    0.0000 </r>
       <r>   17.4812    0.0000 </r>
       <r>   17.4812    0.0000 </r>
       <r>   18.0268    0.0000 </r>
       <r>   23.4169    0.0000 </r>
       <r>   25.2490    0.0000 </r>
       <r>   25.2490    0.0000 </r>
       <r>   26.4612    0.0000 </r>
       <r>   27.4816    0.0000 </r>
       <r>   29.0129    0.0000 </r>
       <r>   31.8867    0.0000 </r>
       <r>   32.3045    0.0000 </r>
       <r>   32.3045    0.0000 </r>
       <r>   37.2136    0.0000 </r>
       <r>   37.2136    0.0000 </r>
       <r>   37.6949    0.0000 </r>
       <r>   37.6949    0.0000 </r>
       <r>   37.7265    0.0000 </r>
       <r>   37.7873    0.0000 </r>
       <r>   39.5541    0.0000 </r>
       <r>   41.6639    0.0000 </r>
       <r>   43.0649    0.0000 </r>
       <r>   44.8956    0.0000 </r>
       <r>   44.8956    0.0000 </r>
       <r>   45.2481    0.0000 </r>
       <r>   45.5557    0.0000 </r>
       <r>   46.7012    0.0000 </r>
       <r>   46.9769    0.0000 </r>
       <r>   46.9769    0.0000 </r>
       <r>   48.8610    0.0000 </r>
       <r>   48.8610    0.0000 </r>
       <r>   49.9592    0.0000 </r>
       <r>   51.2542    0.0000 </r>
       <r>   51.7518    0.0000 </r>
       <r>   52.4445    0.0000 </r>
       <r>   52.4445    0.0000 </r>
       <r>   53.3480    0.0000 </r>
       <r>   53.3770    0.0000 </r>
       <r>   53.3770    0.0000 </r>
       <r>   54.2353    0.0000 </r>
       <r>   54.4860    0.0000 </r>
       <r>   56.3405    0.0000 </r>
       <r>   57.7152    0.0000 </r>
       <r>   57.7152    0.0000 </r>
       <r>   60.7542    0.0000 </r>
       <r>   62.9586    0.0000 </r>
       <r>   63.0566    0.0000 </r>
       <r>   63.0566    0.0000 </r>
       <r>   64.7669    0.0000 </r>
       <r>   64.9820    0.0000 </r>
       <r>   70.7217    0.0000 </r>
       <r>   70.7217    0.0000 </r>
       <r>   71.4628    0.0000 </r>
       <r>   71.6875    0.0000 </r>
      </set>
      <set comment="kpoint 9">
       <r>   -5.6812    1.0000 </r>
       <r>    3.4345    1.0000 </r>
       <r>    4.3854    1.0000 </r>
       <r>    4.3854    1.0000 </r>
       <r>    7.2754    0.0000 </r>
       <r>    9.7641    0.0000 </r>
       <r>   10.0295    0.0000 </r>
       <r>   10.0295    0.0000 </r>
       <r>   12.1915    0.0000 </r>
       <r>   13.8992    0.0000 </r>
       <r>   15.3951    0.0000 </r>
       <r>   17.6855    0.0000 </r>
       <r>   17.6855    0.0000 </r>
       <r>   18.2685    0.0000 </r>
       <r>   24.0558    0.0000 </r>
       <r>   24.6754    0.0000 </r>
       <r>   24.6754    0.0000 </r>
       <r>   25.8583    0.0000 </r>
       <r>   27.0759    0.0000 </r>
       <r>   29.2033    0.0000 </r>
       <r>   31.9297    0.0000 </r>
       <r>   32.4286    0.0000 </r>
       <r>   32.4286    0.0000 </r>
       <r>   36.9514    0.0000 </r>
       <r>   36.9514    0.0000 </r>
       <r>   37.1780    0.0000 </r>
       <r>   38.0249    0.0000 </r>
       <r>   38.0249    0.0000 </r>
       <r>   38.3075    0.0000 </r>
       <r>   38.6796    0.0000 </r>
       <r>   41.2372    0.0000 </r>
       <r>   42.8821    0.0000 </r>
       <r>   44.3023    0.0000 </r>
       <r>   44.3023    0.0000 </r>
       <r>   45.5832    0.0000 </r>
       <r>   45.6170    0.0000 </r>
       <r>   46.5433    0.0000 </r>
       <r>   46.7185    0.0000 </r>
       <r>   46.7185    0.0000 </r>
       <r>   49.0344    0.0000 </r>
       <r>   49.0345    0.0000 </r>
       <r>   50.2073    0.0000 </r>
       <r>   50.8492    0.0000 </r>
       <r>   52.1963    0.0000 </r>
       <r>   52.2534    0.0000 </r>
       <r>   52.2534    0.0000 </r>
       <r>   53.8459    0.0000 </r>
       <r>   53.8708    0.0000 </r>
       <r>   53.8709    0.0000 </r>
       <r>   54.6698    0.0000 </r>
       <r>   54.7446    0.0000 </r>
       <r>   57.0831    0.0000 </r>
       <r>   58.7363    0.0000 </r>
       <r>   58.7363    0.0000 </r>
       <r>   61.5639    0.0000 </r>
       <r>   61.6843    0.0000 </r>
       <r>   64.1316    0.0000 </r>
       <r>   64.1316    0.0000 </r>
       <r>   65.3688    0.0000 </r>
       <r>   65.7075    0.0000 </r>
       <r>   69.8307    0.0000 </r>
       <r>   69.8307    0.0000 </r>
       <r>   70.7100    0.0000 </r>
       <r>   71.4872    0.0000 </r>
      </set>
      <set comment="kpoint 10">
       <r>   -5.5448    1.0000 </r>
       <r>    3.0555    1.0000 </r>
       <r>    4.1970    1.0000 </r>
       <r>    4.1970    1.0000 </r>
       <r>    7.1202    0.0000 </r>
       <r>    9.5221    0.0000 </r>
       <r>   10.3822    0.0000 </r>
       <r>   10.3822    0.0000 </r>
       <r>   12.4811    0.0000 </r>
       <r>   14.0523    0.0000 </r>
       <r>   15.8096    0.0000 </r>
       <r>   17.9113    0.0000 </r>
       <r>   17.9113    0.0000 </r>
       <r>   18.5235    0.0000 </r>
       <r>   24.1151    0.0000 </r>
       <r>   24.1151    0.0000 </r>
       <r>   24.7160    0.0000 </r>
       <r>   25.2567    0.0000 </r>
       <r>   26.6677    0.0000 </r>
       <r>   29.4358    0.0000 </r>
       <r>   31.9195    0.0000 </r>
       <r>   32.5296    0.0000 </r>
       <r>   32.5296    0.0000 </r>
       <r>   36.3128    0.0000 </r>
       <r>   36.3129    0.0000 </r>
       <r>   36.5357    0.0000 </r>
       <r>   37.7985    0.0000 </r>
       <r>   38.7347    0.0000 </r>
       <r>   38.7347    0.0000 </r>
       <r>   38.8465    0.0000 </r>
       <r>   40.8938    0.0000 </r>
       <r>   42.6986    0.0000 </r>
       <r>   43.7488    0.0000 </r>
       <r>   43.7488    0.0000 </r>
       <r>   45.7474    0.0000 </r>
       <r>   45.9009    0.0000 </r>
       <r>   46.3743    0.0000 </r>
       <r>   46.4669    0.0000 </r>
       <r>   46.4670    0.0000 </r>
       <r>   49.1493    0.0000 </r>
       <r>   49.1493    0.0000 </r>
       <r>   50.4012    0.0000 </r>
       <r>   50.4807    0.0000 </r>
       <r>   52.1379    0.0000 </r>
       <r>   52.1379    0.0000 </r>
       <r>   52.6751    0.0000 </r>
       <r>   54.3860    0.0000 </r>
       <r>   54.4413    0.0000 </r>
       <r>   54.4413    0.0000 </r>
       <r>   54.6514    0.0000 </r>
       <r>   55.2965    0.0000 </r>
       <r>   58.0306    0.0000 </r>
       <r>   59.7522    0.0000 </r>
       <r>   59.7522    0.0000 </r>
       <r>   60.4837    0.0000 </r>
       <r>   62.3813    0.0000 </r>
       <r>   65.2310    0.0000 </r>
       <r>   65.2310    0.0000 </r>
       <r>   66.0116    0.0000 </r>
       <r>   66.4858    0.0000 </r>
       <r>   68.9414    0.0000 </r>
       <r>   68.9414    0.0000 </r>
       <r>   69.7209    0.0000 </r>
       <r>   71.4776    0.0000 </r>
      </set>
      <set comment="kpoint 11">
       <r>   -5.3929    1.0000 </r>
       <r>    2.6729    1.0000 </r>
       <r>    4.0170    1.0000 </r>
       <r>    4.0170    1.0000 </r>
       <r>    6.9712    0.0000 </r>
       <r>    9.2250    0.0000 </r>
       <r>   10.7444    0.0000 </r>
       <r>   10.7444    0.0000 </r>
       <r>   12.8499    0.0000 </r>
       <r>   14.2233    0.0000 </r>
       <r>   16.2423    0.0000 </r>
       <r>   18.1538    0.0000 </r>
       <r>   18.1538    0.0000 </r>
       <r>   18.7950    0.0000 </r>
       <r>   23.5758    0.0000 </r>
       <r>   23.5758    0.0000 </r>
       <r>   24.6605    0.0000 </r>
       <r>   25.3795    0.0000 </r>
       <r>   26.2621    0.0000 </r>
       <r>   29.7200    0.0000 </r>
       <r>   31.8459    0.0000 </r>
       <r>   32.5979    0.0000 </r>
       <r>   32.5979    0.0000 </r>
       <r>   35.6605    0.0000 </r>
       <r>   35.6605    0.0000 </r>
       <r>   35.8833    0.0000 </r>
       <r>   36.9171    0.0000 </r>
       <r>   39.3263    0.0000 </r>
       <r>   39.4736    0.0000 </r>
       <r>   39.4736    0.0000 </r>
       <r>   40.6286    0.0000 </r>
       <r>   42.5178    0.0000 </r>
       <r>   43.2347    0.0000 </r>
       <r>   43.2347    0.0000 </r>
       <r>   45.9633    0.0000 </r>
       <r>   46.1847    0.0000 </r>
       <r>   46.1952    0.0000 </r>
       <r>   46.2281    0.0000 </r>
       <r>   46.2281    0.0000 </r>
       <r>   49.1789    0.0000 </r>
       <r>   49.1789    0.0000 </r>
       <r>   49.9440    0.0000 </r>
       <r>   50.7859    0.0000 </r>
       <r>   52.1557    0.0000 </r>
       <r>   52.1557    0.0000 </r>
       <r>   53.1843    0.0000 </r>
       <r>   54.5278    0.0000 </r>
       <r>   54.9650    0.0000 </r>
       <r>   55.0463    0.0000 </r>
       <r>   55.0463    0.0000 </r>
       <r>   55.8590    0.0000 </r>
       <r>   58.7760    0.0000 </r>
       <r>   59.6895    0.0000 </r>
       <r>   60.7546    0.0000 </r>
       <r>   60.7547    0.0000 </r>
       <r>   63.1819    0.0000 </r>
       <r>   66.3334    0.0000 </r>
       <r>   66.3334    0.0000 </r>
       <r>   66.6889    0.0000 </r>
       <r>   67.2909    0.0000 </r>
       <r>   68.0739    0.0000 </r>
       <r>   68.0740    0.0000 </r>
       <r>   68.7272    0.0000 </r>
       <r>   71.4077    0.0000 </r>
      </set>
      <set comment="kpoint 12">
       <r>   -5.2256    1.0000 </r>
       <r>    2.2884    1.0000 </r>
       <r>    3.8470    1.0000 </r>
       <r>    3.8470    1.0000 </r>
       <r>    6.8312    0.0000 </r>
       <r>    8.9083    0.0000 </r>
       <r>   11.1146    0.0000 </r>
       <r>   11.1146    0.0000 </r>
       <r>   13.2627    0.0000 </r>
       <r>   14.4122    0.0000 </r>
       <r>   16.6869    0.0000 </r>
       <r>   18.4047    0.0000 </r>
       <r>   18.4047    0.0000 </r>
       <r>   19.0858    0.0000 </r>
       <r>   23.0674    0.0000 </r>
       <r>   23.0674    0.0000 </r>
       <r>   24.0723    0.0000 </r>
       <r>   25.8643    0.0000 </r>
       <r>   26.0273    0.0000 </r>
       <r>   30.0680    0.0000 </r>
       <r>   31.6965    0.0000 </r>
       <r>   32.6060    0.0000 </r>
       <r>   32.6060    0.0000 </r>
       <r>   35.0430    0.0000 </r>
       <r>   35.0430    0.0000 </r>
       <r>   35.2459    0.0000 </r>
       <r>   36.0409    0.0000 </r>
       <r>   39.7337    0.0000 </r>
       <r>   40.2177    0.0000 </r>
       <r>   40.2177    0.0000 </r>
       <r>   40.4347    0.0000 </r>
       <r>   42.3423    0.0000 </r>
       <r>   42.7626    0.0000 </r>
       <r>   42.7626    0.0000 </r>
       <r>   46.0046    0.0000 </r>
       <r>   46.0046    0.0000 </r>
       <r>   46.0062    0.0000 </r>
       <r>   46.2774    0.0000 </r>
       <r>   46.4200    0.0000 </r>
       <r>   49.1269    0.0000 </r>
       <r>   49.1269    0.0000 </r>
       <r>   49.4952    0.0000 </r>
       <r>   51.1303    0.0000 </r>
       <r>   52.3046    0.0000 </r>
       <r>   52.3046    0.0000 </r>
       <r>   53.7206    0.0000 </r>
       <r>   54.2622    0.0000 </r>
       <r>   55.5805    0.0000 </r>
       <r>   55.6767    0.0000 </r>
       <r>   55.6767    0.0000 </r>
       <r>   56.4170    0.0000 </r>
       <r>   58.2441    0.0000 </r>
       <r>   60.4173    0.0000 </r>
       <r>   61.7280    0.0000 </r>
       <r>   61.7280    0.0000 </r>
       <r>   63.9311    0.0000 </r>
       <r>   67.1509    0.0000 </r>
       <r>   67.1509    0.0000 </r>
       <r>   67.3916    0.0000 </r>
       <r>   67.4947    0.0000 </r>
       <r>   67.4947    0.0000 </r>
       <r>   67.7310    0.0000 </r>
       <r>   68.1098    0.0000 </r>
       <r>   71.2399    0.0000 </r>
      </set>
      <set comment="kpoint 13">
       <r>   -5.0432    1.0000 </r>
       <r>    1.9029    1.0000 </r>
       <r>    3.6881    1.0000 </r>
       <r>    3.6881    1.0000 </r>
       <r>    6.7021    0.0000 </r>
       <r>    8.5912    0.0000 </r>
       <r>   11.4914    0.0000 </r>
       <r>   11.4914    0.0000 </r>
       <r>   13.7002    0.0000 </r>
       <r>   14.6189    0.0000 </r>
       <r>   17.1365    0.0000 </r>
       <r>   18.6490    0.0000 </r>
       <r>   18.6490    0.0000 </r>
       <r>   19.3983    0.0000 </r>
       <r>   22.6061    0.0000 </r>
       <r>   22.6061    0.0000 </r>
       <r>   23.4941    0.0000 </r>
       <r>   25.4807    0.0000 </r>
       <r>   26.6398    0.0000 </r>
       <r>   30.4926    0.0000 </r>
       <r>   31.4576    0.0000 </r>
       <r>   32.4943    0.0000 </r>
       <r>   32.4943    0.0000 </r>
       <r>   34.5303    0.0000 </r>
       <r>   34.5303    0.0000 </r>
       <r>   34.6483    0.0000 </r>
       <r>   35.1754    0.0000 </r>
       <r>   40.0627    0.0000 </r>
       <r>   40.3051    0.0000 </r>
       <r>   40.9349    0.0000 </r>
       <r>   40.9349    0.0000 </r>
       <r>   42.1739    0.0000 </r>
       <r>   42.3520    0.0000 </r>
       <r>   42.3520    0.0000 </r>
       <r>   45.7977    0.0000 </r>
       <r>   45.7977    0.0000 </r>
       <r>   45.8063    0.0000 </r>
       <r>   46.5967    0.0000 </r>
       <r>   46.6952    0.0000 </r>
       <r>   49.0219    0.0000 </r>
       <r>   49.0219    0.0000 </r>
       <r>   49.0660    0.0000 </r>
       <r>   51.5177    0.0000 </r>
       <r>   52.5535    0.0000 </r>
       <r>   52.5536    0.0000 </r>
       <r>   53.7654    0.0000 </r>
       <r>   54.2806    0.0000 </r>
       <r>   56.2301    0.0000 </r>
       <r>   56.3293    0.0000 </r>
       <r>   56.3293    0.0000 </r>
       <r>   56.9620    0.0000 </r>
       <r>   57.6833    0.0000 </r>
       <r>   61.5094    0.0000 </r>
       <r>   62.6334    0.0000 </r>
       <r>   62.6334    0.0000 </r>
       <r>   64.5833    0.0000 </r>
       <r>   66.4609    0.0000 </r>
       <r>   66.4609    0.0000 </r>
       <r>   66.7352    0.0000 </r>
       <r>   68.1009    0.0000 </r>
       <r>   68.3567    0.0000 </r>
       <r>   68.3567    0.0000 </r>
       <r>   68.9282    0.0000 </r>
       <r>   70.9348    0.0000 </r>
      </set>
      <set comment="kpoint 14">
       <r>   -4.8459    1.0000 </r>
       <r>    1.5176    1.0000 </r>
       <r>    3.5411    1.0000 </r>
       <r>    3.5411    1.0000 </r>
       <r>    6.5859    0.0000 </r>
       <r>    8.2841    0.0000 </r>
       <r>   11.8740    0.0000 </r>
       <r>   11.8740    0.0000 </r>
       <r>   14.1515    0.0000 </r>
       <r>   14.8435    0.0000 </r>
       <r>   17.5822    0.0000 </r>
       <r>   18.8604    0.0000 </r>
       <r>   18.8604    0.0000 </r>
       <r>   19.7346    0.0000 </r>
       <r>   22.2190    0.0000 </r>
       <r>   22.2190    0.0000 </r>
       <r>   22.9273    0.0000 </r>
       <r>   25.1196    0.0000 </r>
       <r>   27.2004    0.0000 </r>
       <r>   31.0005    0.0000 </r>
       <r>   31.1189    0.0000 </r>
       <r>   32.1843    0.0000 </r>
       <r>   32.1843    0.0000 </r>
       <r>   34.1108    0.0000 </r>
       <r>   34.2082    0.0000 </r>
       <r>   34.2082    0.0000 </r>
       <r>   34.3291    0.0000 </r>
       <r>   40.2334    0.0000 </r>
       <r>   40.3155    0.0000 </r>
       <r>   41.4415    0.0000 </r>
       <r>   41.4415    0.0000 </r>
       <r>   42.0143    0.0000 </r>
       <r>   42.1749    0.0000 </r>
       <r>   42.1749    0.0000 </r>
       <r>   45.5935    0.0000 </r>
       <r>   45.6081    0.0000 </r>
       <r>   45.6081    0.0000 </r>
       <r>   46.7101    0.0000 </r>
       <r>   47.2140    0.0000 </r>
       <r>   48.6654    0.0000 </r>
       <r>   48.8984    0.0000 </r>
       <r>   48.8985    0.0000 </r>
       <r>   51.9191    0.0000 </r>
       <r>   52.8644    0.0000 </r>
       <r>   52.8644    0.0000 </r>
       <r>   53.0398    0.0000 </r>
       <r>   54.8611    0.0000 </r>
       <r>   56.9123    0.0000 </r>
       <r>   57.0023    0.0000 </r>
       <r>   57.0024    0.0000 </r>
       <r>   57.4451    0.0000 </r>
       <r>   57.4867    0.0000 </r>
       <r>   62.6382    0.0000 </r>
       <r>   63.3511    0.0000 </r>
       <r>   63.3511    0.0000 </r>
       <r>   65.0809    0.0000 </r>
       <r>   65.7428    0.0000 </r>
       <r>   65.9077    0.0000 </r>
       <r>   65.9077    0.0000 </r>
       <r>   68.7634    0.0000 </r>
       <r>   68.8763    0.0000 </r>
       <r>   68.8763    0.0000 </r>
       <r>   69.7274    0.0000 </r>
       <r>   70.4732    0.0000 </r>
      </set>
      <set comment="kpoint 15">
       <r>   -4.6340    1.0000 </r>
       <r>    1.1334    1.0000 </r>
       <r>    3.4067    1.0000 </r>
       <r>    3.4067    1.0000 </r>
       <r>    6.4839    0.0000 </r>
       <r>    7.9929    0.0000 </r>
       <r>   12.2615    0.0000 </r>
       <r>   12.2615    0.0000 </r>
       <r>   14.6095    0.0000 </r>
       <r>   15.0858    0.0000 </r>
       <r>   18.0122    0.0000 </r>
       <r>   18.9951    0.0000 </r>
       <r>   18.9951    0.0000 </r>
       <r>   20.0961    0.0000 </r>
       <r>   21.9502    0.0000 </r>
       <r>   21.9502    0.0000 </r>
       <r>   22.3732    0.0000 </r>
       <r>   24.7918    0.0000 </r>
       <r>   27.6999    0.0000 </r>
       <r>   30.6803    0.0000 </r>
       <r>   31.5754    0.0000 </r>
       <r>   31.6708    0.0000 </r>
       <r>   31.6708    0.0000 </r>
       <r>   33.5265    0.0000 </r>
       <r>   33.6426    0.0000 </r>
       <r>   34.0873    0.0000 </r>
       <r>   34.0874    0.0000 </r>
       <r>   40.2130    0.0000 </r>
       <r>   40.5017    0.0000 </r>
       <r>   41.3095    0.0000 </r>
       <r>   41.3095    0.0000 </r>
       <r>   41.8645    0.0000 </r>
       <r>   42.6469    0.0000 </r>
       <r>   42.6469    0.0000 </r>
       <r>   45.3657    0.0000 </r>
       <r>   45.4364    0.0000 </r>
       <r>   45.4364    0.0000 </r>
       <r>   46.7606    0.0000 </r>
       <r>   47.8238    0.0000 </r>
       <r>   48.3009    0.0000 </r>
       <r>   48.7857    0.0000 </r>
       <r>   48.7857    0.0000 </r>
       <r>   51.8088    0.0000 </r>
       <r>   52.6924    0.0000 </r>
       <r>   53.2037    0.0000 </r>
       <r>   53.2037    0.0000 </r>
       <r>   55.4579    0.0000 </r>
       <r>   57.4716    0.0000 </r>
       <r>   57.6252    0.0000 </r>
       <r>   57.6940    0.0000 </r>
       <r>   57.6940    0.0000 </r>
       <r>   57.9833    0.0000 </r>
       <r>   63.5815    0.0000 </r>
       <r>   63.5816    0.0000 </r>
       <r>   63.7705    0.0000 </r>
       <r>   64.7575    0.0000 </r>
       <r>   65.3603    0.0000 </r>
       <r>   65.8304    0.0000 </r>
       <r>   65.8304    0.0000 </r>
       <r>   68.8377    0.0000 </r>
       <r>   68.8377    0.0000 </r>
       <r>   69.1831    0.0000 </r>
       <r>   69.8682    0.0000 </r>
       <r>   70.4180    0.0000 </r>
      </set>
      <set comment="kpoint 16">
       <r>   -4.4077    1.0000 </r>
       <r>    0.7510    1.0000 </r>
       <r>    3.2854    1.0000 </r>
       <r>    3.2854    1.0000 </r>
       <r>    6.3973    0.0000 </r>
       <r>    7.7210    0.0000 </r>
       <r>   12.6535    0.0000 </r>
       <r>   12.6535    0.0000 </r>
       <r>   15.0694    0.0000 </r>
       <r>   15.3458    0.0000 </r>
       <r>   18.4104    0.0000 </r>
       <r>   19.0004    0.0000 </r>
       <r>   19.0004    0.0000 </r>
       <r>   20.4840    0.0000 </r>
       <r>   21.8325    0.0000 </r>
       <r>   21.8522    0.0000 </r>
       <r>   21.8522    0.0000 </r>
       <r>   24.5122    0.0000 </r>
       <r>   28.1390    0.0000 </r>
       <r>   30.1564    0.0000 </r>
       <r>   31.0314    0.0000 </r>
       <r>   31.0314    0.0000 </r>
       <r>   32.0285    0.0000 </r>
       <r>   32.9546    0.0000 </r>
       <r>   33.2379    0.0000 </r>
       <r>   34.0936    0.0000 </r>
       <r>   34.0936    0.0000 </r>
       <r>   40.2370    0.0000 </r>
       <r>   40.6345    0.0000 </r>
       <r>   40.9867    0.0000 </r>
       <r>   40.9867    0.0000 </r>
       <r>   41.7255    0.0000 </r>
       <r>   43.3050    0.0000 </r>
       <r>   43.3051    0.0000 </r>
       <r>   45.1213    0.0000 </r>
       <r>   45.2827    0.0000 </r>
       <r>   45.2827    0.0000 </r>
       <r>   46.7495    0.0000 </r>
       <r>   47.9786    0.0000 </r>
       <r>   48.5107    0.0000 </r>
       <r>   48.7078    0.0000 </r>
       <r>   48.7078    0.0000 </r>
       <r>   50.8452    0.0000 </r>
       <r>   53.1641    0.0000 </r>
       <r>   53.5423    0.0000 </r>
       <r>   53.5423    0.0000 </r>
       <r>   56.0650    0.0000 </r>
       <r>   57.6665    0.0000 </r>
       <r>   58.3669    0.0000 </r>
       <r>   58.4014    0.0000 </r>
       <r>   58.4014    0.0000 </r>
       <r>   58.4417    0.0000 </r>
       <r>   63.2676    0.0000 </r>
       <r>   63.2677    0.0000 </r>
       <r>   63.7847    0.0000 </r>
       <r>   64.8890    0.0000 </r>
       <r>   65.3732    0.0000 </r>
       <r>   66.2067    0.0000 </r>
       <r>   66.2067    0.0000 </r>
       <r>   68.5727    0.0000 </r>
       <r>   68.5727    0.0000 </r>
       <r>   69.0895    0.0000 </r>
       <r>   69.1657    0.0000 </r>
       <r>   70.7133    0.0000 </r>
      </set>
      <set comment="kpoint 17">
       <r>   -4.1675    1.0000 </r>
       <r>    0.3715    1.0000 </r>
       <r>    3.1775    1.0000 </r>
       <r>    3.1775    1.0000 </r>
       <r>    6.3272    0.0000 </r>
       <r>    7.4706    0.0000 </r>
       <r>   13.0495    0.0000 </r>
       <r>   13.0495    0.0000 </r>
       <r>   15.5274    0.0000 </r>
       <r>   15.6235    0.0000 </r>
       <r>   18.7554    0.0000 </r>
       <r>   18.8521    0.0000 </r>
       <r>   18.8521    0.0000 </r>
       <r>   20.8988    0.0000 </r>
       <r>   21.3060    0.0000 </r>
       <r>   21.9492    0.0000 </r>
       <r>   21.9492    0.0000 </r>
       <r>   24.3003    0.0000 </r>
       <r>   28.5245    0.0000 </r>
       <r>   29.5720    0.0000 </r>
       <r>   30.3330    0.0000 </r>
       <r>   30.3330    0.0000 </r>
       <r>   31.6332    0.0000 </r>
       <r>   32.8811    0.0000 </r>
       <r>   33.3325    0.0000 </r>
       <r>   34.1621    0.0000 </r>
       <r>   34.1621    0.0000 </r>
       <r>   40.2970    0.0000 </r>
       <r>   40.6615    0.0000 </r>
       <r>   40.6615    0.0000 </r>
       <r>   40.7275    0.0000 </r>
       <r>   41.5977    0.0000 </r>
       <r>   43.9421    0.0000 </r>
       <r>   43.9422    0.0000 </r>
       <r>   44.8605    0.0000 </r>
       <r>   45.1474    0.0000 </r>
       <r>   45.1474    0.0000 </r>
       <r>   46.6710    0.0000 </r>
       <r>   47.7026    0.0000 </r>
       <r>   48.6867    0.0000 </r>
       <r>   48.6867    0.0000 </r>
       <r>   49.2604    0.0000 </r>
       <r>   49.7929    0.0000 </r>
       <r>   53.7630    0.0000 </r>
       <r>   53.8526    0.0000 </r>
       <r>   53.8526    0.0000 </r>
       <r>   56.6718    0.0000 </r>
       <r>   57.9646    0.0000 </r>
       <r>   58.8488    0.0000 </r>
       <r>   59.1193    0.0000 </r>
       <r>   59.1193    0.0000 </r>
       <r>   59.1347    0.0000 </r>
       <r>   62.7812    0.0000 </r>
       <r>   62.7812    0.0000 </r>
       <r>   62.8346    0.0000 </r>
       <r>   65.1208    0.0000 </r>
       <r>   65.9737    0.0000 </r>
       <r>   66.4165    0.0000 </r>
       <r>   66.4165    0.0000 </r>
       <r>   68.4057    0.0000 </r>
       <r>   68.5841    0.0000 </r>
       <r>   68.5841    0.0000 </r>
       <r>   68.8044    0.0000 </r>
       <r>   71.2621    0.0000 </r>
      </set>
      <set comment="kpoint 18">
       <r>   -3.9136    1.0000 </r>
       <r>   -0.0043    1.0000 </r>
       <r>    3.0836    1.0000 </r>
       <r>    3.0836    1.0000 </r>
       <r>    6.2745    0.0000 </r>
       <r>    7.2429    0.0000 </r>
       <r>   13.4490    0.0000 </r>
       <r>   13.4490    0.0000 </r>
       <r>   15.9188    0.0000 </r>
       <r>   15.9803    0.0000 </r>
       <r>   18.5781    0.0000 </r>
       <r>   18.5781    0.0000 </r>
       <r>   19.0211    0.0000 </r>
       <r>   20.7942    0.0000 </r>
       <r>   21.3402    0.0000 </r>
       <r>   22.2129    0.0000 </r>
       <r>   22.2129    0.0000 </r>
       <r>   24.1787    0.0000 </r>
       <r>   28.8610    0.0000 </r>
       <r>   28.9538    0.0000 </r>
       <r>   29.6108    0.0000 </r>
       <r>   29.6108    0.0000 </r>
       <r>   30.9174    0.0000 </r>
       <r>   32.5553    0.0000 </r>
       <r>   34.1263    0.0000 </r>
       <r>   34.2583    0.0000 </r>
       <r>   34.2583    0.0000 </r>
       <r>   40.3590    0.0000 </r>
       <r>   40.3590    0.0000 </r>
       <r>   40.3828    0.0000 </r>
       <r>   40.7927    0.0000 </r>
       <r>   41.4816    0.0000 </r>
       <r>   44.5096    0.0000 </r>
       <r>   44.5097    0.0000 </r>
       <r>   44.5862    0.0000 </r>
       <r>   45.0314    0.0000 </r>
       <r>   45.0314    0.0000 </r>
       <r>   46.4948    0.0000 </r>
       <r>   47.4744    0.0000 </r>
       <r>   48.7437    0.0000 </r>
       <r>   48.7437    0.0000 </r>
       <r>   48.7978    0.0000 </r>
       <r>   50.0598    0.0000 </r>
       <r>   54.1052    0.0000 </r>
       <r>   54.1053    0.0000 </r>
       <r>   54.4128    0.0000 </r>
       <r>   57.2551    0.0000 </r>
       <r>   58.3277    0.0000 </r>
       <r>   59.1867    0.0000 </r>
       <r>   59.8350    0.0000 </r>
       <r>   59.8350    0.0000 </r>
       <r>   59.9244    0.0000 </r>
       <r>   61.9296    0.0000 </r>
       <r>   62.3345    0.0000 </r>
       <r>   62.3345    0.0000 </r>
       <r>   64.6600    0.0000 </r>
       <r>   66.1303    0.0000 </r>
       <r>   66.1303    0.0000 </r>
       <r>   66.9882    0.0000 </r>
       <r>   67.6208    0.0000 </r>
       <r>   68.5396    0.0000 </r>
       <r>   69.0971    0.0000 </r>
       <r>   69.0971    0.0000 </r>
       <r>   71.8059    0.0000 </r>
      </set>
      <set comment="kpoint 19">
       <r>   -3.6466    1.0000 </r>
       <r>   -0.3755    1.0000 </r>
       <r>    3.0036    1.0000 </r>
       <r>    3.0036    1.0000 </r>
       <r>    6.2401    0.0000 </r>
       <r>    7.0383    0.0000 </r>
       <r>   13.8511    0.0000 </r>
       <r>   13.8511    0.0000 </r>
       <r>   16.2316    0.0000 </r>
       <r>   16.4252    0.0000 </r>
       <r>   18.2269    0.0000 </r>
       <r>   18.2269    0.0000 </r>
       <r>   19.1820    0.0000 </r>
       <r>   20.2977    0.0000 </r>
       <r>   21.8073    0.0000 </r>
       <r>   22.5947    0.0000 </r>
       <r>   22.5948    0.0000 </r>
       <r>   24.1666    0.0000 </r>
       <r>   28.3266    0.0000 </r>
       <r>   28.8829    0.0000 </r>
       <r>   28.8829    0.0000 </r>
       <r>   29.1257    0.0000 </r>
       <r>   30.2269    0.0000 </r>
       <r>   32.2479    0.0000 </r>
       <r>   34.3638    0.0000 </r>
       <r>   34.3638    0.0000 </r>
       <r>   35.0118    0.0000 </r>
       <r>   40.0876    0.0000 </r>
       <r>   40.0876    0.0000 </r>
       <r>   40.4795    0.0000 </r>
       <r>   40.8400    0.0000 </r>
       <r>   41.3772    0.0000 </r>
       <r>   44.3044    0.0000 </r>
       <r>   44.9069    0.0000 </r>
       <r>   44.9069    0.0000 </r>
       <r>   45.0052    0.0000 </r>
       <r>   45.0052    0.0000 </r>
       <r>   46.1374    0.0000 </r>
       <r>   47.2930    0.0000 </r>
       <r>   47.9885    0.0000 </r>
       <r>   48.8954    0.0000 </r>
       <r>   48.8954    0.0000 </r>
       <r>   50.8979    0.0000 </r>
       <r>   54.2713    0.0000 </r>
       <r>   54.2713    0.0000 </r>
       <r>   55.0964    0.0000 </r>
       <r>   57.7553    0.0000 </r>
       <r>   58.7324    0.0000 </r>
       <r>   59.4336    0.0000 </r>
       <r>   60.5111    0.0000 </r>
       <r>   60.5111    0.0000 </r>
       <r>   60.7269    0.0000 </r>
       <r>   61.1283    0.0000 </r>
       <r>   62.0417    0.0000 </r>
       <r>   62.0417    0.0000 </r>
       <r>   64.0693    0.0000 </r>
       <r>   65.5958    0.0000 </r>
       <r>   65.5958    0.0000 </r>
       <r>   66.8391    0.0000 </r>
       <r>   67.8693    0.0000 </r>
       <r>   68.3304    0.0000 </r>
       <r>   69.6788    0.0000 </r>
       <r>   69.6788    0.0000 </r>
       <r>   71.0113    0.0000 </r>
      </set>
      <set comment="kpoint 20">
       <r>   -3.3668    1.0000 </r>
       <r>   -0.7412    1.0000 </r>
       <r>    2.9380    1.0000 </r>
       <r>    2.9380    1.0000 </r>
       <r>    6.2246    0.0000 </r>
       <r>    6.8573    0.0000 </r>
       <r>   14.2541    0.0000 </r>
       <r>   14.2541    0.0000 </r>
       <r>   16.5618    0.0000 </r>
       <r>   16.8594    0.0000 </r>
       <r>   17.8364    0.0000 </r>
       <r>   17.8364    0.0000 </r>
       <r>   19.2233    0.0000 </r>
       <r>   19.8168    0.0000 </r>
       <r>   22.2974    0.0000 </r>
       <r>   23.0569    0.0000 </r>
       <r>   23.0570    0.0000 </r>
       <r>   24.2660    0.0000 </r>
       <r>   27.7169    0.0000 </r>
       <r>   28.1593    0.0000 </r>
       <r>   28.1593    0.0000 </r>
       <r>   29.0860    0.0000 </r>
       <r>   29.8401    0.0000 </r>
       <r>   31.9505    0.0000 </r>
       <r>   34.4667    0.0000 </r>
       <r>   34.4667    0.0000 </r>
       <r>   35.9414    0.0000 </r>
       <r>   39.8534    0.0000 </r>
       <r>   39.8534    0.0000 </r>
       <r>   40.5636    0.0000 </r>
       <r>   40.8772    0.0000 </r>
       <r>   41.2845    0.0000 </r>
       <r>   44.0247    0.0000 </r>
       <r>   44.8438    0.0000 </r>
       <r>   44.8438    0.0000 </r>
[...]
        <r>  0.0003  0.0036  0.0037  0.0016  0.0000  0.0000  0.0000  0.0000  0.0000 </r>
       </set>
       <set comment="band 44">
        <r>  0.0004  0.0050  0.0024  0.0034  0.0000  0.0000  0.0000  0.0000  0.0000 </r>
        <r>  0.0004  0.0050  0.0024  0.0034  0.0000  0.0000  0.0000  0.0000  0.0000 </r>
       </set>
       <set comment="band 45">
        <r>  0.0001  0.0002  0.0007  0.0007  0.0000  0.0000  0.0000  0.0000  0.0000 </r>
        <r>  0.0001  0.0002  0.0007  0.0007  0.0000  0.0000  0.0000  0.0000  0.0000 </r>
       </set>
       <set comment="band 46">
        <r>  0.0000  0.0002  0.0006  0.0005  0.0000  0.0000  0.0000  0.0000  0.0000 </r>
        <r>  0.0000  0.0002  0.0006  0.0005  0.0000  0.0000  0.0000  0.0000  0.0000 </r>
       </set>
       <set comment="band 47">
        <r>  0.0198  0.0173  0.0161  0.0322  0.0000  0.0000  0.0000  0.0000  0.0000 </r>
        <r>  0.0198  0.0173  0.0161  0.0322  0.0000  0.0000  0.0000  0.0000  0.0000 </r>
       </set>
       <set comment="band 48">
        <r>  0.0149  0.0078  0.0341  0.0407  0.0000  0.0000  0.0000  0.0000  0.0000 </r>
        <r>  0.0149  0.0078  0.0341  0.0407  0.0000  0.0000  0.0000  0.0000  0.0000 </r>
       </set>
       <set comment="band 49">
        <r>  0.0161  0.0180  0.0139  0.0301  0.0000  0.0000  0.0000  0.0000  0.0000 </r>
        <r>  0.0161  0.0180  0.0139  0.0301  0.0000  0.0000  0.0000  0.0000  0.0000 </r>
       </set>
       <set comment="band 50">
        <r>  0.0003  0.0054  0.0275  0.0087  0.0000  0.0000  0.0000  0.0000  0.0000 </r>
        <r>  0.0003  0.0054  0.0275  0.0087  0.0000  0.0000  0.0000  0.0000  0.0000 </r>
       </set>
       <set comment="band 51">
        <r>  0.0059  0.0205  0.0028  0.0145  0.0000  0.0000  0.0000  0.0000  0.0000 </r>
        <r>  0.0059  0.0205  0.0028  0.0145  0.0000  0.0000  0.0000  0.0000  0.0000 </r>
       </set>
       <set comment="band 52">
        <r>  0.0045  0.0149  0.0160  0.0011  0.0000  0.0000  0.0000  0.0000  0.0000 </r>
        <r>  0.0045  0.0149  0.0160  0.0011  0.0000  0.0000  0.0000  0.0000  0.0000 </r>
       </set>
       <set comment="band 53">
        <r>  0.0000  0.0179  0.0248  0.0372  0.0000  0.0000  0.0000  0.0000  0.0000 </r>
        <r>  0.0000  0.0179  0.0248  0.0372  0.0000  0.0000  0.0000  0.0000  0.0000 </r>
       </set>
       <set comment="band 54">
        <r>  0.0039  0.0218  0.0041  0.0072  0.0000  0.0000  0.0000  0.0000  0.0000 </r>
        <r>  0.0039  0.0218  0.0041  0.0072  0.0000  0.0000  0.0000  0.0000  0.0000 </r>
       </set>
       <set comment="band 55">
        <r>  0.0013  0.0221  0.0240  0.0247  0.0000  0.0000  0.0000  0.0000  0.0000 </r>
        <r>  0.0013  0.0221  0.0240  0.0247  0.0000  0.0000  0.0000  0.0000  0.0000 </r>
       </set>
       <set comment="band 56">
        <r>  0.0032  0.0078  0.0080  0.0009  0.0000  0.0000  0.0000  0.0000  0.0000 </r>
        <r>  0.0032  0.0078  0.0080  0.0009  0.0000  0.0000  0.0000  0.0000  0.0000 </r>
       </set>
       <set comment="band 57">
        <r>  0.0017  0.0198  0.0089  0.0009  0.0000  0.0000  0.0000  0.0000  0.0000 </r>
        <r>  0.0017  0.0198  0.0089  0.0009  0.0000  0.0000  0.0000  0.0000  0.0000 </r>
       </set>
       <set comment="band 58">
        <r>  0.0001  0.0026  0.0047  0.0067  0.0000  0.0000  0.0000  0.0000  0.0000 </r>
        <r>  0.0001  0.0026  0.0047  0.0067  0.0000  0.0000  0.0000  0.0000  0.0000 </r>
       </set>
       <set comment="band 59">
        <r>  0.0001  0.0019  0.0029  0.0039  0.0000  0.0000  0.0000  0.0000  0.0000 </r>
        <r>  0.0001  0.0019  0.0029  0.0039  0.0000  0.0000  0.0000  0.0000  0.0000 </r>
       </set>
       <set comment="band 60">
        <r>  0.0011  0.0134  0.0117  0.0081  0.0000  0.0000  0.0000  0.0000  0.0000 </r>
        <r>  0.0011  0.0134  0.0117  0.0081  0.0000  0.0000  0.0000  0.0000  0.0000 </r>
       </set>
       <set comment="band 61">
        <r>  0.0005  0.0103  0.0085  0.0081  0.0000  0.0000  0.0000  0.0000  0.0000 </r>
        <r>  0.0005  0.0103  0.0085  0.0081  0.0000  0.0000  0.0000  0.0000  0.0000 </r>
       </set>
       <set comment="band 62">
        <r>  0.0016  0.0043  0.0035  0.0023  0.0000  0.0000  0.0000  0.0000  0.0000 </r>
        <r>  0.0016  0.0043  0.0035  0.0023  0.0000  0.0000  0.0000  0.0000  0.0000 </r>
       </set>
       <set comment="band 63">
        <r>  0.1417  0.0025  0.0049  0.0008  0.0000  0.0000  0.0000  0.0000  0.0000 </r>
        <r>  0.1416  0.0025  0.0049  0.0008  0.0000  0.0000  0.0000  0.0000  0.0000 </r>
       </set>
       <set comment="band 64">
        <r>  0.1242  0.0027  0.0037  0.0004  0.0000  0.0000  0.0000  0.0000  0.0000 </r>
        <r>  0.1242  0.0027  0.0037  0.0004  0.0000  0.0000  0.0000  0.0000  0.0000 </r>
       </set>
      </set>
      <set comment="kpoint 164">
       <set comment="band 1">
        <r>  0.3800  0.0002  0.0005  0.0007  0.0000  0.0000  0.0000  0.0000  0.0000 </r>
        <r>  0.0064  0.0144  0.0288  0.0432  0.0000  0.0000  0.0000  0.0000  0.0000 </r>
       </set>
       <set comment="band 2">
        <r>  0.0064  0.0144  0.0288  0.0432  0.0000  0.0000  0.0000  0.0000  0.0000 </r>
        <r>  0.3800  0.0002  0.0005  0.0007  0.0000  0.0000  0.0000  0.0000  0.0000 </r>
       </set>
       <set comment="band 3">
        <r>  0.0000  0.0162  0.1300  0.0487  0.0000  0.0000  0.0000  0.0000  0.0000 </r>
        <r>  0.0000  0.0162  0.1300  0.0487  0.0000  0.0000  0.0000  0.0000  0.0000 </r>
       </set>
       <set comment="band 4">
        <r>  0.0000  0.1462  0.0000  0.0487  0.0000  0.0000  0.0000  0.0000  0.0000 </r>
        <r>  0.0000  0.1462  0.0000  0.0487  0.0000  0.0000  0.0000  0.0000  0.0000 </r>
       </set>
       <set comment="band 5">
        <r>  0.0590  0.0051  0.0102  0.0153  0.0000  0.0000  0.0000  0.0000  0.0000 </r>
        <r>  0.0432  0.0070  0.0139  0.0209  0.0000  0.0000  0.0000  0.0000  0.0000 </r>
       </set>
       <set comment="band 6">
        <r>  0.0432  0.0070  0.0139  0.0209  0.0000  0.0000  0.0000  0.0000  0.0000 </r>
        <r>  0.0590  0.0051  0.0102  0.0153  0.0000  0.0000  0.0000  0.0000  0.0000 </r>
       </set>
       <set comment="band 7">
        <r>  0.0000  0.0200  0.1599  0.0600  0.0000  0.0000  0.0000  0.0000  0.0000 </r>
        <r>  0.0000  0.0200  0.1599  0.0600  0.0000  0.0000  0.0000  0.0000  0.0000 </r>
       </set>
       <set comment="band 8">
        <r>  0.0000  0.1799  0.0000  0.0600  0.0000  0.0000  0.0000  0.0000  0.0000 </r>
        <r>  0.0000  0.1799  0.0000  0.0600  0.0000  0.0000  0.0000  0.0000  0.0000 </r>
       </set>
       <set comment="band 9">
        <r>  0.0000  0.0083  0.0000  0.0028  0.0000  0.0000  0.0000  0.0000  0.0000 </r>
        <r>  0.0000  0.0083  0.0000  0.0028  0.0000  0.0000  0.0000  0.0000  0.0000 </r>
       </set>
       <set comment="band 10">
        <r>  0.0000  0.0009  0.0074  0.0028  0.0000  0.0000  0.0000  0.0000  0.0000 </r>
        <r>  0.0000  0.0009  0.0074  0.0028  0.0000  0.0000  0.0000  0.0000  0.0000 </r>
       </set>
       <set comment="band 11">
        <r>  0.0000  0.0000  0.0000  0.0000  0.0000  0.0000  0.0000  0.0000  0.0000 </r>
        <r>  0.0000  0.0000  0.0000  0.0000  0.0000  0.0000  0.0000  0.0000  0.0000 </r>
       </set>
       <set comment="band 12">
        <r>  0.0000  0.0000  0.0000  0.0000  0.0000  0.0000  0.0000  0.0000  0.0000 </r>
        <r>  0.0000  0.0000  0.0000  0.0000  0.0000  0.0000  0.0000  0.0000  0.0000 </r>
       </set>
       <set comment="band 13">
        <r>  0.0114  0.0622  0.1245  0.1867  0.0000  0.0000  0.0000  0.0000  0.0000 </r>
        <r>  0.1031  0.0069  0.0138  0.0206  0.0000  0.0000  0.0000  0.0000  0.0000 </r>
       </set>
       <set comment="band 14">
        <r>  0.1031  0.0069  0.0138  0.0206  0.0000  0.0000  0.0000  0.0000  0.0000 </r>
        <r>  0.0114  0.0622  0.1245  0.1867  0.0000  0.0000  0.0000  0.0000  0.0000 </r>
       </set>
       <set comment="band 15">
        <r>  0.0075  0.0004  0.0008  0.0012  0.0000  0.0000  0.0000  0.0000  0.0000 </r>
        <r>  0.0074  0.0004  0.0008  0.0013  0.0000  0.0000  0.0000  0.0000  0.0000 </r>
       </set>
       <set comment="band 16">
        <r>  0.0074  0.0004  0.0008  0.0013  0.0000  0.0000  0.0000  0.0000  0.0000 </r>
        <r>  0.0075  0.0004  0.0008  0.0012  0.0000  0.0000  0.0000  0.0000  0.0000 </r>
       </set>
       <set comment="band 17">
        <r>  0.0000  0.0045  0.0358  0.0134  0.0000  0.0000  0.0000  0.0000  0.0000 </r>
        <r>  0.0000  0.0045  0.0358  0.0134  0.0000  0.0000  0.0000  0.0000  0.0000 </r>
       </set>
       <set comment="band 18">
        <r>  0.0000  0.0403  0.0000  0.0134  0.0000  0.0000  0.0000  0.0000  0.0000 </r>
        <r>  0.0000  0.0403  0.0000  0.0134  0.0000  0.0000  0.0000  0.0000  0.0000 </r>
       </set>
       <set comment="band 19">
        <r>  0.0000  0.0033  0.0268  0.0100  0.0000  0.0000  0.0000  0.0000  0.0000 </r>
        <r>  0.0000  0.0033  0.0268  0.0100  0.0000  0.0000  0.0000  0.0000  0.0000 </r>
       </set>
       <set comment="band 20">
        <r>  0.0000  0.0301  0.0000  0.0100  0.0000  0.0000  0.0000  0.0000  0.0000 </r>
        <r>  0.0000  0.0301  0.0000  0.0100  0.0000  0.0000  0.0000  0.0000  0.0000 </r>
       </set>
       <set comment="band 21">
        <r>  0.0483  0.0050  0.0101  0.0151  0.0000  0.0000  0.0000  0.0000  0.0000 </r>
        <r>  0.0745  0.0033  0.0065  0.0098  0.0000  0.0000  0.0000  0.0000  0.0000 </r>
       </set>
       <set comment="band 22">
        <r>  0.0745  0.0033  0.0065  0.0098  0.0000  0.0000  0.0000  0.0000  0.0000 </r>
        <r>  0.0483  0.0050  0.0101  0.0151  0.0000  0.0000  0.0000  0.0000  0.0000 </r>
       </set>
       <set comment="band 23">
        <r>  0.0032  0.0007  0.0014  0.0021  0.0000  0.0000  0.0000  0.0000  0.0000 </r>
        <r>  0.0030  0.0007  0.0015  0.0022  0.0000  0.0000  0.0000  0.0000  0.0000 </r>
       </set>
       <set comment="band 24">
        <r>  0.0030  0.0007  0.0015  0.0022  0.0000  0.0000  0.0000  0.0000  0.0000 </r>
        <r>  0.0032  0.0007  0.0014  0.0021  0.0000  0.0000  0.0000  0.0000  0.0000 </r>
       </set>
       <set comment="band 25">
        <r>  0.0000  0.0078  0.0622  0.0233  0.0000  0.0000  0.0000  0.0000  0.0000 </r>
        <r>  0.0000  0.0078  0.0622  0.0233  0.0000  0.0000  0.0000  0.0000  0.0000 </r>
       </set>
       <set comment="band 26">
        <r>  0.0000  0.0700  0.0000  0.0233  0.0000  0.0000  0.0000  0.0000  0.0000 </r>
        <r>  0.0000  0.0700  0.0000  0.0233  0.0000  0.0000  0.0000  0.0000  0.0000 </r>
       </set>
       <set comment="band 27">
        <r>  0.0000  0.0060  0.0480  0.0180  0.0000  0.0000  0.0000  0.0000  0.0000 </r>
        <r>  0.0000  0.0060  0.0480  0.0180  0.0000  0.0000  0.0000  0.0000  0.0000 </r>
       </set>
       <set comment="band 28">
        <r>  0.0000  0.0540  0.0000  0.0180  0.0000  0.0000  0.0000  0.0000  0.0000 </r>
        <r>  0.0000  0.0540  0.0000  0.0180  0.0000  0.0000  0.0000  0.0000  0.0000 </r>
       </set>
       <set comment="band 29">
        <r>  0.0058  0.0018  0.0035  0.0053  0.0000  0.0000  0.0000  0.0000  0.0000 </r>
        <r>  0.0085  0.0012  0.0024  0.0036  0.0000  0.0000  0.0000  0.0000  0.0000 </r>
       </set>
       <set comment="band 30">
        <r>  0.0085  0.0012  0.0024  0.0036  0.0000  0.0000  0.0000  0.0000  0.0000 </r>
        <r>  0.0058  0.0018  0.0035  0.0053  0.0000  0.0000  0.0000  0.0000  0.0000 </r>
       </set>
       <set comment="band 31">
        <r>  0.0000  0.0000  0.0000  0.0000  0.0000  0.0000  0.0000  0.0000  0.0000 </r>
        <r>  0.0000  0.0000  0.0000  0.0000  0.0000  0.0000  0.0000  0.0000  0.0000 </r>
       </set>
       <set comment="band 32">
        <r>  0.0000  0.0000  0.0000  0.0000  0.0000  0.0000  0.0000  0.0000  0.0000 </r>
        <r>  0.0000  0.0000  0.0000  0.0000  0.0000  0.0000  0.0000  0.0000  0.0000 </r>
       </set>
       <set comment="band 33">
        <r>  0.0301  0.0002  0.0003  0.0005  0.0000  0.0000  0.0000  0.0000  0.0000 </r>
        <r>  0.0731  0.0001  0.0001  0.0002  0.0000  0.0000  0.0000  0.0000  0.0000 </r>
       </set>
       <set comment="band 34">
        <r>  0.0731  0.0001  0.0001  0.0002  0.0000  0.0000  0.0000  0.0000  0.0000 </r>
        <r>  0.0301  0.0002  0.0003  0.0005  0.0000  0.0000  0.0000  0.0000  0.0000 </r>
       </set>
       <set comment="band 35">
        <r>  0.0000  0.0166  0.0000  0.0055  0.0000  0.0000  0.0000  0.0000  0.0000 </r>
        <r>  0.0000  0.0166  0.0000  0.0055  0.0000  0.0000  0.0000  0.0000  0.0000 </r>
       </set>
       <set comment="band 36">
        <r>  0.0000  0.0018  0.0147  0.0055  0.0000  0.0000  0.0000  0.0000  0.0000 </r>
        <r>  0.0000  0.0018  0.0147  0.0055  0.0000  0.0000  0.0000  0.0000  0.0000 </r>
       </set>
       <set comment="band 37">
        <r>  0.0000  0.0020  0.0157  0.0059  0.0000  0.0000  0.0000  0.0000  0.0000 </r>
        <r>  0.0000  0.0020  0.0157  0.0059  0.0000  0.0000  0.0000  0.0000  0.0000 </r>
       </set>
       <set comment="band 38">
        <r>  0.0000  0.0177  0.0000  0.0059  0.0000  0.0000  0.0000  0.0000  0.0000 </r>
        <r>  0.0000  0.0177  0.0000  0.0059  0.0000  0.0000  0.0000  0.0000  0.0000 </r>
       </set>
       <set comment="band 39">
        <r>  0.0039  0.0036  0.0072  0.0108  0.0000  0.0000  0.0000  0.0000  0.0000 </r>
        <r>  0.0041  0.0034  0.0069  0.0103  0.0000  0.0000  0.0000  0.0000  0.0000 </r>
       </set>
       <set comment="band 40">
        <r>  0.0041  0.0034  0.0069  0.0103  0.0000  0.0000  0.0000  0.0000  0.0000 </r>
        <r>  0.0039  0.0036  0.0072  0.0108  0.0000  0.0000  0.0000  0.0000  0.0000 </r>
       </set>
       <set comment="band 41">
        <r>  0.0000  0.0007  0.0055  0.0021  0.0000  0.0000  0.0000  0.0000  0.0000 </r>
        <r>  0.0000  0.0007  0.0055  0.0021  0.0000  0.0000  0.0000  0.0000  0.0000 </r>
       </set>
       <set comment="band 42">
        <r>  0.0000  0.0062  0.0000  0.0021  0.0000  0.0000  0.0000  0.0000  0.0000 </r>
        <r>  0.0000  0.0062  0.0000  0.0021  0.0000  0.0000  0.0000  0.0000  0.0000 </r>
       </set>
       <set comment="band 43">
        <r>  0.0000  0.0084  0.0000  0.0028  0.0000  0.0000  0.0000  0.0000  0.0000 </r>
        <r>  0.0000  0.0084  0.0000  0.0028  0.0000  0.0000  0.0000  0.0000  0.0000 </r>
       </set>
       <set comment="band 44">
        <r>  0.0000  0.0009  0.0075  0.0028  0.0000  0.0000  0.0000  0.0000  0.0000 </r>
        <r>  0.0000  0.0009  0.0075  0.0028  0.0000  0.0000  0.0000  0.0000  0.0000 </r>
       </set>
       <set comment="band 45">
        <r>  0.0000  0.0000  0.0000  0.0000  0.0000  0.0000  0.0000  0.0000  0.0000 </r>
        <r>  0.0000  0.0000  0.0000  0.0000  0.0000  0.0000  0.0000  0.0000  0.0000 </r>
       </set>
       <set comment="band 46">
        <r>  0.0000  0.0000  0.0000  0.0000  0.0000  0.0000  0.0000  0.0000  0.0000 </r>
        <r>  0.0000  0.0000  0.0000  0.0000  0.0000  0.0000  0.0000  0.0000  0.0000 </r>
       </set>
       <set comment="band 47">
        <r>  0.0201  0.0129  0.0259  0.0388  0.0000  0.0000  0.0000  0.0000  0.0000 </r>
        <r>  0.0196  0.0133  0.0265  0.0398  0.0000  0.0000  0.0000  0.0000  0.0000 </r>
       </set>
       <set comment="band 48">
        <r>  0.0196  0.0133  0.0265  0.0398  0.0000  0.0000  0.0000  0.0000  0.0000 </r>
        <r>  0.0201  0.0129  0.0259  0.0388  0.0000  0.0000  0.0000  0.0000  0.0000 </r>
       </set>
       <set comment="band 49">
        <r>  0.0155  0.0055  0.0110  0.0165  0.0000  0.0000  0.0000  0.0000  0.0000 </r>
        <r>  0.0073  0.0117  0.0233  0.0350  0.0000  0.0000  0.0000  0.0000  0.0000 </r>
       </set>
       <set comment="band 50">
        <r>  0.0073  0.0117  0.0233  0.0350  0.0000  0.0000  0.0000  0.0000  0.0000 </r>
        <r>  0.0155  0.0055  0.0110  0.0165  0.0000  0.0000  0.0000  0.0000  0.0000 </r>
       </set>
       <set comment="band 51">
        <r>  0.0000  0.0039  0.0315  0.0118  0.0000  0.0000  0.0000  0.0000  0.0000 </r>
        <r>  0.0000  0.0039  0.0315  0.0118  0.0000  0.0000  0.0000  0.0000  0.0000 </r>
       </set>
       <set comment="band 52">
        <r>  0.0000  0.0355  0.0000  0.0118  0.0000  0.0000  0.0000  0.0000  0.0000 </r>
        <r>  0.0000  0.0355  0.0000  0.0118  0.0000  0.0000  0.0000  0.0000  0.0000 </r>
       </set>
       <set comment="band 53">
        <r>  0.0000  0.0000  0.0000  0.0000  0.0000  0.0000  0.0000  0.0000  0.0000 </r>
        <r>  0.0000  0.0000  0.0000  0.0000  0.0000  0.0000  0.0000  0.0000  0.0000 </r>
       </set>
       <set comment="band 54">
        <r>  0.0000  0.0000  0.0000  0.0000  0.0000  0.0000  0.0000  0.0000  0.0000 </r>
        <r>  0.0000  0.0000  0.0000  0.0000  0.0000  0.0000  0.0000  0.0000  0.0000 </r>
       </set>
       <set comment="band 55">
        <r>  0.0000  0.0080  0.0644  0.0241  0.0000  0.0000  0.0000  0.0000  0.0000 </r>
        <r>  0.0000  0.0080  0.0644  0.0241  0.0000  0.0000  0.0000  0.0000  0.0000 </r>
       </set>
       <set comment="band 56">
        <r>  0.0000  0.0724  0.0000  0.0241  0.0000  0.0000  0.0000  0.0000  0.0000 </r>
        <r>  0.0000  0.0724  0.0000  0.0241  0.0000  0.0000  0.0000  0.0000  0.0000 </r>
       </set>
       <set comment="band 57">
        <r>  0.0000  0.0066  0.0000  0.0022  0.0000  0.0000  0.0000  0.0000  0.0000 </r>
        <r>  0.0000  0.0066  0.0000  0.0022  0.0000  0.0000  0.0000  0.0000  0.0000 </r>
       </set>
       <set comment="band 58">
        <r>  0.0000  0.0007  0.0059  0.0022  0.0000  0.0000  0.0000  0.0000  0.0000 </r>
        <r>  0.0000  0.0007  0.0059  0.0022  0.0000  0.0000  0.0000  0.0000  0.0000 </r>
       </set>
       <set comment="band 59">
        <r>  0.0000  0.0000  0.0000  0.0000  0.0000  0.0000  0.0000  0.0000  0.0000 </r>
        <r>  0.0000  0.0000  0.0000  0.0000  0.0000  0.0000  0.0000  0.0000  0.0000 </r>
       </set>
       <set comment="band 60">
        <r>  0.0000  0.0000  0.0000  0.0000  0.0000  0.0000  0.0000  0.0000  0.0000 </r>
        <r>  0.0000  0.0000  0.0000  0.0000  0.0000  0.0000  0.0000  0.0000  0.0000 </r>
       </set>
       <set comment="band 61">
        <r>  0.0000  0.0368  0.0000  0.0123  0.0000  0.0000  0.0000  0.0000  0.0000 </r>
        <r>  0.0000  0.0368  0.0000  0.0122  0.0000  0.0000  0.0000  0.0000  0.0000 </r>
       </set>
       <set comment="band 62">
        <r>  0.0000  0.0041  0.0327  0.0122  0.0000  0.0000  0.0000  0.0000  0.0000 </r>
        <r>  0.0000  0.0041  0.0327  0.0123  0.0000  0.0000  0.0000  0.0000  0.0000 </r>
       </set>
       <set comment="band 63">
        <r>  0.2826  0.0000  0.0000  0.0000  0.0000  0.0000  0.0000  0.0000  0.0000 </r>
        <r>  0.0044  0.0000  0.0000  0.0000  0.0000  0.0000  0.0000  0.0000  0.0000 </r>
       </set>
       <set comment="band 64">
        <r>  0.0044  0.0000  0.0000  0.0000  0.0000  0.0000  0.0000  0.0000  0.0000 </r>
        <r>  0.2826  0.0000  0.0000  0.0000  0.0000  0.0000  0.0000  0.0000  0.0000 </r>
       </set>
      </set>
     </set>
    </set>
   </array>
  </projected>
 </calculation>
 <structure name="finalpos" >
  <crystal>
   <varray name="basis" >
    <v>       3.86748400       0.00000000       0.00000000 </v>
    <v>       1.93374200       3.34934000       0.00000000 </v>
    <v>       0.00000000      -2.23289100       3.15778800 </v>
   </varray>
   <i name="volume">     40.90446642 </i>
   <varray name="rec_basis" >
    <v>       0.25856603      -0.14928314      -0.10555901 </v>
    <v>       0.00000000       0.29856628       0.21111803 </v>
    <v>       0.00000000       0.00000000       0.31667737 </v>
   </varray>
  </crystal>
  <varray name="positions" >
   <v>       0.00000000       0.00000000       0.00000000 </v>
   <v>       0.75000000       0.50000000       0.75000000 </v>
  </varray>
 </structure>
</modeling>
