unknown system                          
           1
     3.867484    0.000000    0.000000
     1.933742    3.349340    0.000000
     0.000000   -2.232891    3.157788
   Si
   2
Direct configuration=     1
   0.00000000  0.00000000  0.00000000
   0.75000000  0.50000000  0.75000000
