   2   2   1   0
  0.2002240E+02  0.3840198E-09  0.3840199E-09  0.3840198E-09  0.5000000E-15
  1.000000000000000E-004
  CAR 
 unknown system                          
     46.38027937     -8.70320309  301      5.64145380      1.00000000
     -8.703  0.0000E+00  0.0000E+00  0.0000E+00  0.0000E+00
     -8.520  0.0000E+00  0.0000E+00  0.0000E+00  0.0000E+00
     -8.336  0.0000E+00  0.0000E+00  0.0000E+00  0.0000E+00
     -8.152  0.0000E+00  0.0000E+00  0.0000E+00  0.0000E+00
     -7.969  0.0000E+00  0.0000E+00  0.0000E+00  0.0000E+00
     -7.785  0.0000E+00  0.0000E+00  0.0000E+00  0.0000E+00
     -7.602  0.0000E+00  0.0000E+00  0.0000E+00  0.0000E+00
     -7.418  0.0000E+00  0.0000E+00  0.0000E+00  0.0000E+00
     -7.234  0.0000E+00  0.0000E+00  0.0000E+00  0.0000E+00
     -7.051  0.0000E+00  0.0000E+00  0.0000E+00  0.0000E+00
     -6.867  0.0000E+00  0.0000E+00  0.0000E+00  0.0000E+00
     -6.683  0.0000E+00  0.0000E+00  0.0000E+00  0.0000E+00
     -6.500  0.0000E+00  0.0000E+00  0.0000E+00  0.0000E+00
     -6.316  0.0000E+00  0.0000E+00  0.0000E+00  0.0000E+00
     -6.133  0.7911E-04  0.7687E-04  0.1761E-05  0.1687E-05
     -5.949  0.7671E-03  0.7690E-03  0.9229E-04  0.9156E-04
     -5.765  0.1047E-02  0.1045E-02  0.2539E-03  0.2529E-03
     -5.582  0.1444E-02  0.1442E-02  0.4850E-03  0.4836E-03
     -5.398  0.1573E-02  0.1572E-02  0.7603E-03  0.7587E-03
     -5.215  0.1810E-02  0.1809E-02  0.1071E-02  0.1069E-02
     -5.031  0.2078E-02  0.2076E-02  0.1427E-02  0.1425E-02
     -4.847  0.2295E-02  0.2293E-02  0.1829E-02  0.1827E-02
     -4.664  0.2513E-02  0.2512E-02  0.2271E-02  0.2268E-02
     -4.480  0.2784E-02  0.2782E-02  0.2756E-02  0.2753E-02
     -4.297  0.3153E-02  0.3151E-02  0.3300E-02  0.3297E-02
     -4.113  0.3589E-02  0.3586E-02  0.3918E-02  0.3914E-02
     -3.929  0.4976E-02  0.4969E-02  0.4694E-02  0.4689E-02
     -3.746  0.4355E-02  0.4356E-02  0.5562E-02  0.5558E-02
     -3.562  0.4161E-02  0.4163E-02  0.6349E-02  0.6344E-02
     -3.378  0.3888E-02  0.3896E-02  0.7089E-02  0.7085E-02
     -3.195  0.3632E-02  0.3633E-02  0.7766E-02  0.7762E-02
     -3.011  0.3296E-02  0.3298E-02  0.8408E-02  0.8405E-02
     -2.828  0.3406E-02  0.3407E-02  0.9027E-02  0.9024E-02
     -2.644  0.2088E-02  0.2094E-02  0.9534E-02  0.9532E-02
     -2.460  0.1300E-02  0.1304E-02  0.9838E-02  0.9837E-02
     -2.277  0.6884E-03  0.6917E-03  0.1002E-01  0.1002E-01
     -2.093  0.1742E-03  0.1761E-03  0.1010E-01  0.1010E-01
     -1.910  0.3879E-03  0.3851E-03  0.1013E-01  0.1013E-01
     -1.726  0.9397E-03  0.9363E-03  0.1025E-01  0.1025E-01
     -1.542  0.1595E-02  0.1590E-02  0.1048E-01  0.1048E-01
     -1.359  0.2822E-02  0.2812E-02  0.1088E-01  0.1087E-01
     -1.175  0.4516E-02  0.4509E-02  0.1156E-01  0.1156E-01
     -0.992  0.7829E-02  0.7834E-02  0.1269E-01  0.1269E-01
     -0.808  0.5369E-02  0.5380E-02  0.1390E-01  0.1390E-01
     -0.624  0.3955E-02  0.3959E-02  0.1473E-01  0.1473E-01
     -0.441  0.3299E-02  0.3302E-02  0.1540E-01  0.1539E-01
     -0.257  0.2765E-02  0.2768E-02  0.1595E-01  0.1595E-01
     -0.073  0.2360E-02  0.2362E-02  0.1642E-01  0.1642E-01
      0.110  0.2095E-02  0.2096E-02  0.1683E-01  0.1682E-01
      0.294  0.1899E-02  0.1900E-02  0.1719E-01  0.1719E-01
      0.477  0.1723E-02  0.1724E-02  0.1752E-01  0.1752E-01
      0.661  0.1554E-02  0.1555E-02  0.1783E-01  0.1782E-01
      0.845  0.1388E-02  0.1388E-02  0.1809E-01  0.1809E-01
      1.028  0.1255E-02  0.1256E-02  0.1834E-01  0.1833E-01
      1.212  0.1114E-02  0.1115E-02  0.1855E-01  0.1855E-01
      1.395  0.1008E-02  0.1008E-02  0.1875E-01  0.1875E-01
      1.579  0.4750E-02  0.4716E-02  0.1915E-01  0.1915E-01
      1.763  0.5909E-02  0.5912E-02  0.2034E-01  0.2033E-01
      1.946  0.5800E-02  0.5799E-02  0.2140E-01  0.2139E-01
      2.130  0.5801E-02  0.5801E-02  0.2247E-01  0.2246E-01
      2.313  0.5830E-02  0.5849E-02  0.2362E-01  0.2362E-01
      2.497  0.5631E-02  0.5629E-02  0.2464E-01  0.2464E-01
      2.681  0.6323E-02  0.6318E-02  0.2573E-01  0.2573E-01
      2.864  0.7666E-02  0.7656E-02  0.2701E-01  0.2700E-01
      3.048  0.7959E-02  0.7972E-02  0.2859E-01  0.2858E-01
      3.232  0.7701E-02  0.7701E-02  0.3002E-01  0.3001E-01
      3.415  0.7224E-02  0.7227E-02  0.3140E-01  0.3140E-01
      3.599  0.7198E-02  0.7198E-02  0.3273E-01  0.3272E-01
      3.782  0.7258E-02  0.7261E-02  0.3405E-01  0.3404E-01
      3.966  0.6688E-02  0.6691E-02  0.3533E-01  0.3533E-01
      4.150  0.6697E-02  0.6697E-02  0.3655E-01  0.3654E-01
      4.333  0.6054E-02  0.6061E-02  0.3774E-01  0.3773E-01
      4.517  0.3911E-02  0.3919E-02  0.3866E-01  0.3866E-01
      4.700  0.2926E-02  0.2931E-02  0.3928E-01  0.3928E-01
      4.884  0.1926E-02  0.1929E-02  0.3974E-01  0.3974E-01
      5.068  0.1423E-02  0.1426E-02  0.4004E-01  0.4004E-01
      5.251  0.1043E-02  0.1045E-02  0.4027E-01  0.4027E-01
      5.435  0.2534E-03  0.2563E-03  0.4039E-01  0.4039E-01
      5.619  0.0000E+00  0.0000E+00  0.4040E-01  0.4040E-01
      5.802  0.0000E+00  0.0000E+00  0.4040E-01  0.4040E-01
      5.986  0.0000E+00  0.0000E+00  0.4040E-01  0.4040E-01
      6.169  0.0000E+00  0.0000E+00  0.4040E-01  0.4040E-01
      6.353  0.1626E-03  0.1607E-03  0.4041E-01  0.4041E-01
      6.537  0.1378E-02  0.1373E-02  0.4053E-01  0.4053E-01
      6.720  0.1215E-02  0.1214E-02  0.4072E-01  0.4071E-01
      6.904  0.1905E-02  0.1902E-02  0.4100E-01  0.4100E-01
      7.087  0.2462E-02  0.2459E-02  0.4140E-01  0.4140E-01
      7.271  0.3422E-02  0.3417E-02  0.4193E-01  0.4193E-01
      7.455  0.4774E-02  0.4768E-02  0.4268E-01  0.4268E-01
      7.638  0.6674E-02  0.6662E-02  0.4374E-01  0.4374E-01
      7.822  0.1002E-01  0.1002E-01  0.4531E-01  0.4530E-01
      8.005  0.1089E-01  0.1088E-01  0.4723E-01  0.4722E-01
      8.189  0.9872E-02  0.9882E-02  0.4923E-01  0.4922E-01
      8.373  0.6160E-02  0.6176E-02  0.5072E-01  0.5072E-01
      8.556  0.2734E-02  0.2739E-02  0.5151E-01  0.5151E-01
      8.740  0.3419E-02  0.3413E-02  0.5203E-01  0.5203E-01
      8.924  0.5668E-02  0.5655E-02  0.5284E-01  0.5283E-01
      9.107  0.1432E-01  0.1425E-01  0.5440E-01  0.5439E-01
      9.291  0.1024E-01  0.1028E-01  0.5727E-01  0.5726E-01
      9.474  0.7280E-02  0.7280E-02  0.5875E-01  0.5874E-01
      9.658  0.7120E-02  0.7122E-02  0.6008E-01  0.6007E-01
      9.842  0.6743E-02  0.6742E-02  0.6133E-01  0.6132E-01
     10.025  0.5861E-02  0.5872E-02  0.6272E-01  0.6271E-01
     10.209  0.4731E-02  0.4732E-02  0.6364E-01  0.6364E-01
     10.392  0.4450E-02  0.4451E-02  0.6449E-01  0.6449E-01
     10.576  0.4300E-02  0.4298E-02  0.6529E-01  0.6528E-01
     10.760  0.8125E-02  0.8103E-02  0.6638E-01  0.6637E-01
     10.943  0.7268E-02  0.7272E-02  0.6790E-01  0.6789E-01
     11.127  0.6158E-02  0.6161E-02  0.6911E-01  0.6911E-01
     11.310  0.5386E-02  0.5392E-02  0.7017E-01  0.7017E-01
     11.494  0.5070E-02  0.5067E-02  0.7109E-01  0.7108E-01
     11.678  0.4866E-02  0.4869E-02  0.7201E-01  0.7201E-01
     11.861  0.4105E-02  0.4104E-02  0.7283E-01  0.7282E-01
     12.045  0.4541E-02  0.4539E-02  0.7360E-01  0.7360E-01
     12.229  0.5605E-02  0.5603E-02  0.7455E-01  0.7454E-01
     12.412  0.6445E-02  0.6443E-02  0.7566E-01  0.7565E-01
     12.596  0.7512E-02  0.7507E-02  0.7692E-01  0.7692E-01
     12.779  0.7702E-02  0.7703E-02  0.7835E-01  0.7835E-01
     12.963  0.6556E-02  0.6565E-02  0.7969E-01  0.7968E-01
     13.147  0.6315E-02  0.6315E-02  0.8084E-01  0.8083E-01
     13.330  0.6453E-02  0.6453E-02  0.8201E-01  0.8200E-01
     13.514  0.6879E-02  0.6875E-02  0.8320E-01  0.8320E-01
     13.697  0.6905E-02  0.6907E-02  0.8447E-01  0.8447E-01
     13.881  0.5724E-02  0.5727E-02  0.8564E-01  0.8564E-01
     14.065  0.5541E-02  0.5541E-02  0.8666E-01  0.8666E-01
     14.248  0.5653E-02  0.5654E-02  0.8769E-01  0.8769E-01
     14.432  0.5795E-02  0.5795E-02  0.8875E-01  0.8874E-01
     14.615  0.5932E-02  0.5932E-02  0.8982E-01  0.8982E-01
     14.799  0.6270E-02  0.6268E-02  0.9094E-01  0.9093E-01
     14.983  0.7366E-02  0.7363E-02  0.9218E-01  0.9218E-01
     15.166  0.8512E-02  0.8507E-02  0.9364E-01  0.9363E-01
     15.350  0.9268E-02  0.9267E-02  0.9532E-01  0.9531E-01
     15.534  0.9257E-02  0.9256E-02  0.9701E-01  0.9701E-01
     15.717  0.8093E-02  0.8100E-02  0.9861E-01  0.9861E-01
     15.901  0.7557E-02  0.7558E-02  0.1000E+00  0.1000E+00
     16.084  0.6997E-02  0.7002E-02  0.1014E+00  0.1014E+00
     16.268  0.6052E-02  0.6059E-02  0.1026E+00  0.1026E+00
     16.452  0.3649E-02  0.3654E-02  0.1035E+00  0.1035E+00
     16.635  0.2325E-02  0.2325E-02  0.1040E+00  0.1040E+00
     16.819  0.3443E-02  0.3441E-02  0.1046E+00  0.1046E+00
     17.002  0.4337E-02  0.4335E-02  0.1053E+00  0.1053E+00
     17.186  0.4537E-02  0.4536E-02  0.1061E+00  0.1061E+00
     17.370  0.5288E-02  0.5285E-02  0.1070E+00  0.1070E+00
     17.553  0.6623E-02  0.6619E-02  0.1081E+00  0.1081E+00
     17.737  0.8428E-02  0.8426E-02  0.1094E+00  0.1094E+00
     17.920  0.9600E-02  0.9598E-02  0.1111E+00  0.1111E+00
     18.104  0.9388E-02  0.9385E-02  0.1128E+00  0.1128E+00
     18.288  0.1071E-01  0.1072E-01  0.1147E+00  0.1147E+00
     18.471  0.9824E-02  0.9828E-02  0.1166E+00  0.1166E+00
     18.655  0.9529E-02  0.9534E-02  0.1184E+00  0.1184E+00
     18.839  0.7093E-02  0.7093E-02  0.1198E+00  0.1198E+00
     19.022  0.8003E-02  0.8002E-02  0.1212E+00  0.1212E+00
     19.206  0.9299E-02  0.9297E-02  0.1228E+00  0.1228E+00
     19.389  0.9795E-02  0.9796E-02  0.1246E+00  0.1246E+00
     19.573  0.8320E-02  0.8323E-02  0.1262E+00  0.1262E+00
     19.757  0.6648E-02  0.6645E-02  0.1276E+00  0.1276E+00
     19.940  0.6265E-02  0.6263E-02  0.1288E+00  0.1288E+00
     20.124  0.6709E-02  0.6707E-02  0.1300E+00  0.1300E+00
     20.307  0.9550E-02  0.9546E-02  0.1314E+00  0.1314E+00
     20.491  0.1111E-01  0.1111E-01  0.1334E+00  0.1334E+00
     20.675  0.9642E-02  0.9647E-02  0.1353E+00  0.1353E+00
     20.858  0.6699E-02  0.6713E-02  0.1369E+00  0.1369E+00
     21.042  0.4951E-02  0.4951E-02  0.1379E+00  0.1379E+00
     21.225  0.5261E-02  0.5259E-02  0.1388E+00  0.1388E+00
     21.409  0.9543E-02  0.9553E-02  0.1399E+00  0.1399E+00
     21.593  0.5991E-02  0.5997E-02  0.1413E+00  0.1413E+00
     21.776  0.4673E-02  0.4674E-02  0.1423E+00  0.1423E+00
     21.960  0.5172E-02  0.5170E-02  0.1431E+00  0.1431E+00
     22.144  0.6908E-02  0.6905E-02  0.1442E+00  0.1442E+00
     22.327  0.7381E-02  0.7381E-02  0.1455E+00  0.1455E+00
     22.511  0.8146E-02  0.8146E-02  0.1470E+00  0.1470E+00
     22.694  0.7655E-02  0.7656E-02  0.1484E+00  0.1484E+00
     22.878  0.8212E-02  0.8210E-02  0.1499E+00  0.1499E+00
     23.062  0.7804E-02  0.7803E-02  0.1514E+00  0.1514E+00
     23.245  0.8289E-02  0.8285E-02  0.1528E+00  0.1528E+00
     23.429  0.1129E-01  0.1128E-01  0.1546E+00  0.1546E+00
     23.612  0.8365E-02  0.8405E-02  0.1567E+00  0.1567E+00
     23.796  0.1619E-01  0.1623E-01  0.1586E+00  0.1586E+00
     23.980  0.5471E-02  0.5476E-02  0.1603E+00  0.1603E+00
     24.163  0.9524E-02  0.9523E-02  0.1615E+00  0.1615E+00
     24.347  0.1271E-01  0.1271E-01  0.1636E+00  0.1636E+00
     24.530  0.1294E-01  0.1294E-01  0.1660E+00  0.1660E+00
     24.714  0.1205E-01  0.1205E-01  0.1683E+00  0.1683E+00
     24.898  0.9702E-02  0.9707E-02  0.1704E+00  0.1704E+00
     25.081  0.7739E-02  0.7740E-02  0.1719E+00  0.1719E+00
     25.265  0.6106E-02  0.6110E-02  0.1732E+00  0.1732E+00
     25.449  0.4846E-02  0.4847E-02  0.1742E+00  0.1742E+00
     25.632  0.4728E-02  0.4729E-02  0.1751E+00  0.1751E+00
     25.816  0.4770E-02  0.4770E-02  0.1759E+00  0.1759E+00
     25.999  0.5348E-02  0.5347E-02  0.1769E+00  0.1769E+00
     26.183  0.6444E-02  0.6442E-02  0.1779E+00  0.1779E+00
     26.367  0.8087E-02  0.8086E-02  0.1793E+00  0.1793E+00
     26.550  0.9887E-02  0.9887E-02  0.1811E+00  0.1811E+00
     26.734  0.1100E-01  0.1100E-01  0.1830E+00  0.1830E+00
     26.917  0.1080E-01  0.1080E-01  0.1850E+00  0.1850E+00
     27.101  0.1518E-01  0.1515E-01  0.1871E+00  0.1871E+00
     27.285  0.1304E-01  0.1304E-01  0.1900E+00  0.1900E+00
     27.468  0.1074E-01  0.1075E-01  0.1921E+00  0.1921E+00
     27.652  0.9277E-02  0.9279E-02  0.1939E+00  0.1939E+00
     27.836  0.6802E-02  0.6803E-02  0.1954E+00  0.1954E+00
     28.019  0.5356E-02  0.5357E-02  0.1965E+00  0.1965E+00
     28.203  0.8082E-02  0.8083E-02  0.1978E+00  0.1978E+00
     28.386  0.9652E-02  0.9657E-02  0.1994E+00  0.1994E+00
     28.570  0.9478E-02  0.9479E-02  0.2011E+00  0.2011E+00
     28.754  0.8592E-02  0.8594E-02  0.2028E+00  0.2028E+00
     28.937  0.6989E-02  0.6989E-02  0.2042E+00  0.2042E+00
     29.121  0.5802E-02  0.5802E-02  0.2054E+00  0.2054E+00
     29.304  0.5156E-02  0.5155E-02  0.2064E+00  0.2064E+00
     29.488  0.6120E-02  0.6119E-02  0.2074E+00  0.2074E+00
     29.672  0.6630E-02  0.6628E-02  0.2086E+00  0.2086E+00
     29.855  0.7682E-02  0.7680E-02  0.2099E+00  0.2099E+00
     30.039  0.1115E-01  0.1114E-01  0.2115E+00  0.2115E+00
     30.222  0.7149E-02  0.7152E-02  0.2131E+00  0.2131E+00
     30.406  0.6770E-02  0.6769E-02  0.2143E+00  0.2143E+00
     30.590  0.8853E-02  0.8850E-02  0.2157E+00  0.2157E+00
     30.773  0.1064E-01  0.1064E-01  0.2176E+00  0.2176E+00
     30.957  0.1077E-01  0.1077E-01  0.2196E+00  0.2196E+00
     31.141  0.1013E-01  0.1013E-01  0.2215E+00  0.2215E+00
     31.324  0.9014E-02  0.9014E-02  0.2232E+00  0.2232E+00
     31.508  0.8913E-02  0.8910E-02  0.2249E+00  0.2249E+00
     31.691  0.9424E-02  0.9424E-02  0.2267E+00  0.2267E+00
     31.875  0.8265E-02  0.8263E-02  0.2283E+00  0.2283E+00
     32.059  0.8179E-02  0.8180E-02  0.2299E+00  0.2299E+00
     32.242  0.7929E-02  0.7929E-02  0.2313E+00  0.2313E+00
     32.426  0.7936E-02  0.7936E-02  0.2328E+00  0.2328E+00
     32.609  0.8527E-02  0.8526E-02  0.2343E+00  0.2343E+00
     32.793  0.1197E-01  0.1199E-01  0.2361E+00  0.2361E+00
     32.977  0.5210E-02  0.5211E-02  0.2376E+00  0.2376E+00
     33.160  0.5685E-02  0.5684E-02  0.2385E+00  0.2385E+00
     33.344  0.9510E-02  0.9509E-02  0.2399E+00  0.2399E+00
     33.527  0.9304E-02  0.9306E-02  0.2418E+00  0.2418E+00
     33.711  0.7517E-02  0.7516E-02  0.2433E+00  0.2433E+00
     33.895  0.6739E-02  0.6738E-02  0.2446E+00  0.2446E+00
     34.078  0.7303E-02  0.7298E-02  0.2459E+00  0.2459E+00
     34.262  0.9792E-02  0.9790E-02  0.2475E+00  0.2475E+00
     34.446  0.1246E-01  0.1246E-01  0.2495E+00  0.2494E+00
     34.629  0.1482E-01  0.1483E-01  0.2520E+00  0.2520E+00
     34.813  0.1383E-01  0.1384E-01  0.2547E+00  0.2546E+00
     34.996  0.1034E-01  0.1035E-01  0.2570E+00  0.2570E+00
     35.180  0.9497E-02  0.9498E-02  0.2588E+00  0.2588E+00
     35.364  0.9104E-02  0.9106E-02  0.2605E+00  0.2605E+00
     35.547  0.8198E-02  0.8199E-02  0.2621E+00  0.2621E+00
     35.731  0.9224E-02  0.9224E-02  0.2637E+00  0.2637E+00
     35.914  0.9692E-02  0.9692E-02  0.2654E+00  0.2654E+00
     36.098  0.9952E-02  0.9952E-02  0.2672E+00  0.2672E+00
     36.282  0.1072E-01  0.1072E-01  0.2691E+00  0.2691E+00
     36.465  0.1388E-01  0.1388E-01  0.2713E+00  0.2713E+00
     36.649  0.9817E-02  0.9818E-02  0.2736E+00  0.2736E+00
     36.832  0.8155E-02  0.8156E-02  0.2752E+00  0.2752E+00
     37.016  0.8663E-02  0.8666E-02  0.2767E+00  0.2767E+00
     37.200  0.8030E-02  0.8033E-02  0.2782E+00  0.2782E+00
     37.383  0.8073E-02  0.8074E-02  0.2797E+00  0.2797E+00
     37.567  0.8207E-02  0.8208E-02  0.2812E+00  0.2812E+00
     37.751  0.9823E-02  0.9814E-02  0.2827E+00  0.2827E+00
     37.934  0.1254E-01  0.1254E-01  0.2850E+00  0.2850E+00
     38.118  0.1181E-01  0.1181E-01  0.2872E+00  0.2872E+00
     38.301  0.1149E-01  0.1149E-01  0.2894E+00  0.2894E+00
     38.485  0.1213E-01  0.1213E-01  0.2915E+00  0.2915E+00
     38.669  0.1251E-01  0.1251E-01  0.2938E+00  0.2938E+00
     38.852  0.1141E-01  0.1141E-01  0.2960E+00  0.2960E+00
     39.036  0.9840E-02  0.9841E-02  0.2980E+00  0.2980E+00
     39.219  0.7944E-02  0.7943E-02  0.2996E+00  0.2996E+00
     39.403  0.8054E-02  0.8053E-02  0.3010E+00  0.3010E+00
     39.587  0.6912E-02  0.6909E-02  0.3025E+00  0.3025E+00
     39.770  0.6909E-02  0.6905E-02  0.3037E+00  0.3037E+00
     39.954  0.8410E-02  0.8407E-02  0.3051E+00  0.3051E+00
     40.137  0.1022E-01  0.1023E-01  0.3068E+00  0.3068E+00
     40.321  0.8824E-02  0.8825E-02  0.3084E+00  0.3084E+00
     40.505  0.8064E-02  0.8067E-02  0.3100E+00  0.3100E+00
     40.688  0.7417E-02  0.7418E-02  0.3114E+00  0.3114E+00
     40.872  0.7681E-02  0.7681E-02  0.3128E+00  0.3128E+00
     41.056  0.7641E-02  0.7643E-02  0.3142E+00  0.3142E+00
     41.239  0.8029E-02  0.8029E-02  0.3156E+00  0.3156E+00
     41.423  0.7689E-02  0.7690E-02  0.3171E+00  0.3171E+00
     41.606  0.7424E-02  0.7423E-02  0.3185E+00  0.3185E+00
     41.790  0.7650E-02  0.7652E-02  0.3199E+00  0.3199E+00
     41.974  0.6122E-02  0.6123E-02  0.3212E+00  0.3212E+00
     42.157  0.3705E-02  0.3707E-02  0.3221E+00  0.3221E+00
     42.341  0.1851E-02  0.1852E-02  0.3226E+00  0.3226E+00
     42.524  0.8535E-03  0.8545E-03  0.3228E+00  0.3228E+00
     42.708  0.4075E-03  0.4076E-03  0.3229E+00  0.3229E+00
     42.892  0.3200E-03  0.3202E-03  0.3230E+00  0.3230E+00
     43.075  0.2510E-03  0.2511E-03  0.3231E+00  0.3231E+00
     43.259  0.2005E-03  0.2005E-03  0.3231E+00  0.3231E+00
     43.442  0.1852E-03  0.1854E-03  0.3231E+00  0.3231E+00
     43.626  0.1881E-03  0.1885E-03  0.3232E+00  0.3232E+00
     43.810  0.2129E-03  0.2138E-03  0.3232E+00  0.3232E+00
     43.993  0.0000E+00  0.0000E+00  0.3232E+00  0.3232E+00
     44.177  0.0000E+00  0.0000E+00  0.3232E+00  0.3232E+00
     44.361  0.0000E+00  0.0000E+00  0.3232E+00  0.3232E+00
     44.544  0.0000E+00  0.0000E+00  0.3232E+00  0.3232E+00
     44.728  0.0000E+00  0.0000E+00  0.3232E+00  0.3232E+00
     44.911  0.0000E+00  0.0000E+00  0.3232E+00  0.3232E+00
     45.095  0.0000E+00  0.0000E+00  0.3232E+00  0.3232E+00
     45.279  0.0000E+00  0.0000E+00  0.3232E+00  0.3232E+00
     45.462  0.0000E+00  0.0000E+00  0.3232E+00  0.3232E+00
     45.646  0.0000E+00  0.0000E+00  0.3232E+00  0.3232E+00
     45.829  0.0000E+00  0.0000E+00  0.3232E+00  0.3232E+00
     46.013  0.0000E+00  0.0000E+00  0.3232E+00  0.3232E+00
     46.197  0.0000E+00  0.0000E+00  0.3232E+00  0.3232E+00
     46.380  0.0000E+00  0.0000E+00  0.3232E+00  0.3232E+00
     46.38027937     -8.70320309  301      5.64145380      1.00000000
     -8.703  0.0000E+00  0.0000E+00  0.0000E+00  0.0000E+00  0.0000E+00  0.0000E+00  0.0000E+00  0.0000E+00  0.0000E+00  0.0000E+00  0.0000E+00  0.0000E+00  0.0000E+00  0.0000E+00  0.0000E+00  0.0000E+00  0.0000E+00  0.0000E+00
     -8.520  0.0000E+00  0.0000E+00  0.0000E+00  0.0000E+00  0.0000E+00  0.0000E+00  0.0000E+00  0.0000E+00  0.0000E+00  0.0000E+00  0.0000E+00  0.0000E+00  0.0000E+00  0.0000E+00  0.0000E+00  0.0000E+00  0.0000E+00  0.0000E+00
     -8.336  0.0000E+00  0.0000E+00  0.0000E+00  0.0000E+00  0.0000E+00  0.0000E+00  0.0000E+00  0.0000E+00  0.0000E+00  0.0000E+00  0.0000E+00  0.0000E+00  0.0000E+00  0.0000E+00  0.0000E+00  0.0000E+00  0.0000E+00  0.0000E+00
     -8.152  0.0000E+00  0.0000E+00  0.0000E+00  0.0000E+00  0.0000E+00  0.0000E+00  0.0000E+00  0.0000E+00  0.0000E+00  0.0000E+00  0.0000E+00  0.0000E+00  0.0000E+00  0.0000E+00  0.0000E+00  0.0000E+00  0.0000E+00  0.0000E+00
     -7.969  0.0000E+00  0.0000E+00  0.0000E+00  0.0000E+00  0.0000E+00  0.0000E+00  0.0000E+00  0.0000E+00  0.0000E+00  0.0000E+00  0.0000E+00  0.0000E+00  0.0000E+00  0.0000E+00  0.0000E+00  0.0000E+00  0.0000E+00  0.0000E+00
     -7.785  0.0000E+00  0.0000E+00  0.0000E+00  0.0000E+00  0.0000E+00  0.0000E+00  0.0000E+00  0.0000E+00  0.0000E+00  0.0000E+00  0.0000E+00  0.0000E+00  0.0000E+00  0.0000E+00  0.0000E+00  0.0000E+00  0.0000E+00  0.0000E+00
     -7.602  0.0000E+00  0.0000E+00  0.0000E+00  0.0000E+00  0.0000E+00  0.0000E+00  0.0000E+00  0.0000E+00  0.0000E+00  0.0000E+00  0.0000E+00  0.0000E+00  0.0000E+00  0.0000E+00  0.0000E+00  0.0000E+00  0.0000E+00  0.0000E+00
     -7.418  0.0000E+00  0.0000E+00  0.0000E+00  0.0000E+00  0.0000E+00  0.0000E+00  0.0000E+00  0.0000E+00  0.0000E+00  0.0000E+00  0.0000E+00  0.0000E+00  0.0000E+00  0.0000E+00  0.0000E+00  0.0000E+00  0.0000E+00  0.0000E+00
     -7.234  0.0000E+00  0.0000E+00  0.0000E+00  0.0000E+00  0.0000E+00  0.0000E+00  0.0000E+00  0.0000E+00  0.0000E+00  0.0000E+00  0.0000E+00  0.0000E+00  0.0000E+00  0.0000E+00  0.0000E+00  0.0000E+00  0.0000E+00  0.0000E+00
     -7.051  0.0000E+00  0.0000E+00  0.0000E+00  0.0000E+00  0.0000E+00  0.0000E+00  0.0000E+00  0.0000E+00  0.0000E+00  0.0000E+00  0.0000E+00  0.0000E+00  0.0000E+00  0.0000E+00  0.0000E+00  0.0000E+00  0.0000E+00  0.0000E+00
     -6.867  0.0000E+00  0.0000E+00  0.0000E+00  0.0000E+00  0.0000E+00  0.0000E+00  0.0000E+00  0.0000E+00  0.0000E+00  0.0000E+00  0.0000E+00  0.0000E+00  0.0000E+00  0.0000E+00  0.0000E+00  0.0000E+00  0.0000E+00  0.0000E+00
     -6.683  0.0000E+00  0.0000E+00  0.0000E+00  0.0000E+00  0.0000E+00  0.0000E+00  0.0000E+00  0.0000E+00  0.0000E+00  0.0000E+00  0.0000E+00  0.0000E+00  0.0000E+00  0.0000E+00  0.0000E+00  0.0000E+00  0.0000E+00  0.0000E+00
     -6.500  0.0000E+00  0.0000E+00  0.0000E+00  0.0000E+00  0.0000E+00  0.0000E+00  0.0000E+00  0.0000E+00  0.0000E+00  0.0000E+00  0.0000E+00  0.0000E+00  0.0000E+00  0.0000E+00  0.0000E+00  0.0000E+00  0.0000E+00  0.0000E+00
     -6.316  0.0000E+00  0.0000E+00  0.0000E+00  0.0000E+00  0.0000E+00  0.0000E+00  0.0000E+00  0.0000E+00  0.0000E+00  0.0000E+00  0.0000E+00  0.0000E+00  0.0000E+00  0.0000E+00  0.0000E+00  0.0000E+00  0.0000E+00  0.0000E+00
     -6.133  0.1653E-02  0.1606E-02  0.5165E-05  0.5019E-05  0.2582E-05  0.2509E-05  0.7143E-05  0.6941E-05  0.0000E+00  0.0000E+00  0.0000E+00  0.0000E+00  0.0000E+00  0.0000E+00  0.0000E+00  0.0000E+00  0.0000E+00  0.0000E+00
     -5.949  0.1599E-01  0.1603E-01  0.8114E-04  0.8096E-04  0.4057E-04  0.4048E-04  0.1244E-03  0.1236E-03  0.0000E+00  0.0000E+00  0.0000E+00  0.0000E+00  0.0000E+00  0.0000E+00  0.0000E+00  0.0000E+00  0.0000E+00  0.0000E+00
     -5.765  0.2175E-01  0.2170E-01  0.1770E-03  0.1764E-03  0.8898E-04  0.8864E-04  0.2561E-03  0.2554E-03  0.0000E+00  0.0000E+00  0.0000E+00  0.0000E+00  0.0000E+00  0.0000E+00  0.0000E+00  0.0000E+00  0.0000E+00  0.0000E+00
     -5.582  0.2992E-01  0.2990E-01  0.3119E-03  0.3114E-03  0.1590E-03  0.1588E-03  0.4461E-03  0.4448E-03  0.0000E+00  0.0000E+00  0.0000E+00  0.0000E+00  0.0000E+00  0.0000E+00  0.0000E+00  0.0000E+00  0.0000E+00  0.0000E+00
     -5.398  0.3249E-01  0.3247E-01  0.4053E-03  0.4047E-03  0.2162E-03  0.2159E-03  0.7663E-03  0.7648E-03  0.0000E+00  0.0000E+00  0.0000E+00  0.0000E+00  0.0000E+00  0.0000E+00  0.0000E+00  0.0000E+00  0.0000E+00  0.0000E+00
     -5.215  0.3735E-01  0.3732E-01  0.5260E-03  0.5253E-03  0.2860E-03  0.2856E-03  0.1041E-02  0.1040E-02  0.0000E+00  0.0000E+00  0.0000E+00  0.0000E+00  0.0000E+00  0.0000E+00  0.0000E+00  0.0000E+00  0.0000E+00  0.0000E+00
     -5.031  0.4283E-01  0.4280E-01  0.6915E-03  0.6904E-03  0.3773E-03  0.3767E-03  0.1314E-02  0.1313E-02  0.0000E+00  0.0000E+00  0.0000E+00  0.0000E+00  0.0000E+00  0.0000E+00  0.0000E+00  0.0000E+00  0.0000E+00  0.0000E+00
     -4.847  0.4727E-01  0.4724E-01  0.8928E-03  0.8918E-03  0.4885E-03  0.4879E-03  0.1681E-02  0.1678E-02  0.0000E+00  0.0000E+00  0.0000E+00  0.0000E+00  0.0000E+00  0.0000E+00  0.0000E+00  0.0000E+00  0.0000E+00  0.0000E+00
     -4.664  0.5182E-01  0.5179E-01  0.1065E-02  0.1064E-02  0.5989E-03  0.5983E-03  0.2094E-02  0.2092E-02  0.0000E+00  0.0000E+00  0.0000E+00  0.0000E+00  0.0000E+00  0.0000E+00  0.0000E+00  0.0000E+00  0.0000E+00  0.0000E+00
     -4.480  0.5754E-01  0.5750E-01  0.1267E-02  0.1266E-02  0.7337E-03  0.7329E-03  0.2502E-02  0.2500E-02  0.0000E+00  0.0000E+00  0.0000E+00  0.0000E+00  0.0000E+00  0.0000E+00  0.0000E+00  0.0000E+00  0.0000E+00  0.0000E+00
     -4.297  0.6534E-01  0.6529E-01  0.1602E-02  0.1600E-02  0.9475E-03  0.9463E-03  0.2873E-02  0.2871E-02  0.0000E+00  0.0000E+00  0.0000E+00  0.0000E+00  0.0000E+00  0.0000E+00  0.0000E+00  0.0000E+00  0.0000E+00  0.0000E+00
     -4.113  0.7462E-01  0.7456E-01  0.2003E-02  0.2000E-02  0.1203E-02  0.1202E-02  0.3303E-02  0.3300E-02  0.0000E+00  0.0000E+00  0.0000E+00  0.0000E+00  0.0000E+00  0.0000E+00  0.0000E+00  0.0000E+00  0.0000E+00  0.0000E+00
     -3.929  0.1046E+00  0.1044E+00  0.2886E-02  0.2881E-02  0.1778E-02  0.1775E-02  0.4786E-02  0.4780E-02  0.0000E+00  0.0000E+00  0.0000E+00  0.0000E+00  0.0000E+00  0.0000E+00  0.0000E+00  0.0000E+00  0.0000E+00  0.0000E+00
     -3.746  0.9119E-01  0.9119E-01  0.2954E-02  0.2952E-02  0.1965E-02  0.1964E-02  0.4223E-02  0.4223E-02  0.0000E+00  0.0000E+00  0.0000E+00  0.0000E+00  0.0000E+00  0.0000E+00  0.0000E+00  0.0000E+00  0.0000E+00  0.0000E+00
     -3.562  0.8721E-01  0.8725E-01  0.3179E-02  0.3178E-02  0.2177E-02  0.2176E-02  0.3963E-02  0.3966E-02  0.0000E+00  0.0000E+00  0.0000E+00  0.0000E+00  0.0000E+00  0.0000E+00  0.0000E+00  0.0000E+00  0.0000E+00  0.0000E+00
     -3.378  0.8185E-01  0.8202E-01  0.3433E-02  0.3435E-02  0.2405E-02  0.2407E-02  0.3553E-02  0.3562E-02  0.0000E+00  0.0000E+00  0.0000E+00  0.0000E+00  0.0000E+00  0.0000E+00  0.0000E+00  0.0000E+00  0.0000E+00  0.0000E+00
     -3.195  0.7734E-01  0.7734E-01  0.3637E-02  0.3636E-02  0.2558E-02  0.2557E-02  0.3073E-02  0.3074E-02  0.0000E+00  0.0000E+00  0.0000E+00  0.0000E+00  0.0000E+00  0.0000E+00  0.0000E+00  0.0000E+00  0.0000E+00  0.0000E+00
     -3.011  0.7191E-01  0.7195E-01  0.3494E-02  0.3495E-02  0.2461E-02  0.2462E-02  0.2572E-02  0.2575E-02  0.0000E+00  0.0000E+00  0.0000E+00  0.0000E+00  0.0000E+00  0.0000E+00  0.0000E+00  0.0000E+00  0.0000E+00  0.0000E+00
     -2.828  0.7860E-01  0.7858E-01  0.3925E-02  0.3925E-02  0.2661E-02  0.2661E-02  0.2138E-02  0.2140E-02  0.0000E+00  0.0000E+00  0.0000E+00  0.0000E+00  0.0000E+00  0.0000E+00  0.0000E+00  0.0000E+00  0.0000E+00  0.0000E+00
     -2.644  0.5355E-01  0.5368E-01  0.2171E-02  0.2178E-02  0.1479E-02  0.1484E-02  0.9539E-03  0.9579E-03  0.0000E+00  0.0000E+00  0.0000E+00  0.0000E+00  0.0000E+00  0.0000E+00  0.0000E+00  0.0000E+00  0.0000E+00  0.0000E+00
     -2.460  0.3511E-01  0.3520E-01  0.1236E-02  0.1240E-02  0.8403E-03  0.8431E-03  0.5216E-03  0.5232E-03  0.0000E+00  0.0000E+00  0.0000E+00  0.0000E+00  0.0000E+00  0.0000E+00  0.0000E+00  0.0000E+00  0.0000E+00  0.0000E+00
     -2.277  0.1945E-01  0.1954E-01  0.5915E-03  0.5947E-03  0.4007E-03  0.4028E-03  0.2514E-03  0.2527E-03  0.0000E+00  0.0000E+00  0.0000E+00  0.0000E+00  0.0000E+00  0.0000E+00  0.0000E+00  0.0000E+00  0.0000E+00  0.0000E+00
     -2.093  0.4799E-02  0.4879E-02  0.1960E-03  0.1934E-03  0.1231E-03  0.1220E-03  0.5946E-04  0.5995E-04  0.0000E+00  0.0000E+00  0.0000E+00  0.0000E+00  0.0000E+00  0.0000E+00  0.0000E+00  0.0000E+00  0.0000E+00  0.0000E+00
     -1.910  0.3861E-02  0.3828E-02  0.1477E-02  0.1467E-02  0.8168E-03  0.8112E-03  0.3681E-03  0.3646E-03  0.0000E+00  0.0000E+00  0.0000E+00  0.0000E+00  0.0000E+00  0.0000E+00  0.0000E+00  0.0000E+00  0.0000E+00  0.0000E+00
     -1.726  0.1071E-01  0.1066E-01  0.3308E-02  0.3297E-02  0.1854E-02  0.1848E-02  0.1086E-02  0.1081E-02  0.0000E+00  0.0000E+00  0.0000E+00  0.0000E+00  0.0000E+00  0.0000E+00  0.0000E+00  0.0000E+00  0.0000E+00  0.0000E+00
     -1.542  0.1991E-01  0.1985E-01  0.5331E-02  0.5318E-02  0.2997E-02  0.2990E-02  0.2028E-02  0.2021E-02  0.0000E+00  0.0000E+00  0.0000E+00  0.0000E+00  0.0000E+00  0.0000E+00  0.0000E+00  0.0000E+00  0.0000E+00  0.0000E+00
     -1.359  0.4031E-01  0.4014E-01  0.8647E-02  0.8623E-02  0.4789E-02  0.4776E-02  0.4269E-02  0.4251E-02  0.0000E+00  0.0000E+00  0.0000E+00  0.0000E+00  0.0000E+00  0.0000E+00  0.0000E+00  0.0000E+00  0.0000E+00  0.0000E+00
     -1.175  0.7143E-01  0.7132E-01  0.1211E-01  0.1211E-01  0.6528E-02  0.6524E-02  0.1015E-01  0.1009E-01  0.0000E+00  0.0000E+00  0.0000E+00  0.0000E+00  0.0000E+00  0.0000E+00  0.0000E+00  0.0000E+00  0.0000E+00  0.0000E+00
     -0.992  0.1145E+00  0.1146E+00  0.1872E-01  0.1873E-01  0.9686E-02  0.9692E-02  0.2858E-01  0.2858E-01  0.0000E+00  0.0000E+00  0.0000E+00  0.0000E+00  0.0000E+00  0.0000E+00  0.0000E+00  0.0000E+00  0.0000E+00  0.0000E+00
     -0.808  0.7768E-01  0.7783E-01  0.1296E-01  0.1298E-01  0.6869E-02  0.6881E-02  0.2047E-01  0.2052E-01  0.0000E+00  0.0000E+00  0.0000E+00  0.0000E+00  0.0000E+00  0.0000E+00  0.0000E+00  0.0000E+00  0.0000E+00  0.0000E+00
     -0.624  0.5823E-01  0.5828E-01  0.9746E-02  0.9755E-02  0.5304E-02  0.5308E-02  0.1481E-01  0.1483E-01  0.0000E+00  0.0000E+00  0.0000E+00  0.0000E+00  0.0000E+00  0.0000E+00  0.0000E+00  0.0000E+00  0.0000E+00  0.0000E+00
     -0.441  0.4865E-01  0.4869E-01  0.8244E-02  0.8252E-02  0.4544E-02  0.4548E-02  0.1261E-01  0.1262E-01  0.0000E+00  0.0000E+00  0.0000E+00  0.0000E+00  0.0000E+00  0.0000E+00  0.0000E+00  0.0000E+00  0.0000E+00  0.0000E+00
     -0.257  0.4048E-01  0.4052E-01  0.7033E-02  0.7039E-02  0.3906E-02  0.3910E-02  0.1097E-01  0.1097E-01  0.0000E+00  0.0000E+00  0.0000E+00  0.0000E+00  0.0000E+00  0.0000E+00  0.0000E+00  0.0000E+00  0.0000E+00  0.0000E+00
     -0.073  0.3404E-01  0.3407E-01  0.6100E-02  0.6104E-02  0.3385E-02  0.3388E-02  0.9860E-02  0.9864E-02  0.0000E+00  0.0000E+00  0.0000E+00  0.0000E+00  0.0000E+00  0.0000E+00  0.0000E+00  0.0000E+00  0.0000E+00  0.0000E+00
      0.110  0.2989E-01  0.2991E-01  0.5474E-02  0.5477E-02  0.3030E-02  0.3032E-02  0.9128E-02  0.9131E-02  0.0000E+00  0.0000E+00  0.0000E+00  0.0000E+00  0.0000E+00  0.0000E+00  0.0000E+00  0.0000E+00  0.0000E+00  0.0000E+00
      0.294  0.2687E-01  0.2688E-01  0.5008E-02  0.5010E-02  0.2753E-02  0.2755E-02  0.8573E-02  0.8575E-02  0.0000E+00  0.0000E+00  0.0000E+00  0.0000E+00  0.0000E+00  0.0000E+00  0.0000E+00  0.0000E+00  0.0000E+00  0.0000E+00
      0.477  0.2409E-01  0.2411E-01  0.4582E-02  0.4584E-02  0.2493E-02  0.2495E-02  0.8088E-02  0.8091E-02  0.0000E+00  0.0000E+00  0.0000E+00  0.0000E+00  0.0000E+00  0.0000E+00  0.0000E+00  0.0000E+00  0.0000E+00  0.0000E+00