    2    2   99    2
  0.2002240E+02  0.3840198E-09  0.3840199E-09  0.3840198E-09  0.5000000E-15
  1.000000000000000E-004
  CAR 
 unknown system                          
      8     29     32
 
  0.0000000E+00  0.0000000E+00  0.0000000E+00  0.1953125E-02
    1       -6.199408     -6.198460   1.000000   1.000000
    2        5.613010      5.614012   1.000000   1.000000
    3        5.613014      5.614016   1.000000   1.000000
    4        5.613015      5.614017   1.000000   1.000000
    5        8.169157      8.170067   0.000000   0.000000
    6        8.169158      8.170068   0.000000   0.000000
    7        8.169160      8.170070   0.000000   0.000000
    8        8.742532      8.743765   0.000000   0.000000
    9       13.321618     13.321948   0.000000   0.000000
   10       13.321629     13.321959   0.000000   0.000000
   11       13.491084     13.491106   0.000000   0.000000
   12       16.793908     16.794302   0.000000   0.000000
   13       16.793924     16.794318   0.000000   0.000000
   14       16.793925     16.794319   0.000000   0.000000
   15       20.887634     20.887169   0.000000   0.000000
   16       28.463694     28.463411   0.000000   0.000000
   17       28.463695     28.463412   0.000000   0.000000
   18       28.463713     28.463430   0.000000   0.000000
   19       29.543862     29.543540   0.000000   0.000000
   20       29.543874     29.543553   0.000000   0.000000
   21       30.988015     30.989017   0.000000   0.000000
   22       30.988024     30.989026   0.000000   0.000000
   23       30.988027     30.989029   0.000000   0.000000
   24       34.518855     34.519461   0.000000   0.000000
   25       34.518866     34.519472   0.000000   0.000000
   26       34.518869     34.519475   0.000000   0.000000
   27       40.101808     40.101266   0.000000   0.000000
   28       40.101811     40.101269   0.000000   0.000000
   29       40.101814     40.101273   0.000000   0.000000
   30       43.407563     43.407326   0.000000   0.000000
   31       43.876460     43.876074   0.000000   0.000000
   32       43.876485     43.876098   0.000000   0.000000
 
  0.1250000E+00  0.0000000E+00 -0.6938894E-17  0.1562500E-01
    1       -5.998997     -5.998045   1.000000   1.000000
    2        4.022297      4.023305   1.000000   1.000000
    3        5.330672      5.331681   1.000000   1.000000
    4        5.330675      5.331684   1.000000   1.000000
    5        8.054804      8.055717   0.000000   0.000000
    6        8.584538      8.585444   0.000000   0.000000
    7        8.584539      8.585445   0.000000   0.000000
    8       10.142606     10.143720   0.000000   0.000000
    9       12.848934     12.849263   0.000000   0.000000
   10       12.848943     12.849272   0.000000   0.000000
   11       14.266384     14.266515   0.000000   0.000000
   12       16.240954     16.241188   0.000000   0.000000
   13       17.938677     17.939049   0.000000   0.000000
   14       17.938689     17.939062   0.000000   0.000000
   15       22.100887     22.100574   0.000000   0.000000
   16       26.455650     26.455762   0.000000   0.000000
   17       26.455660     26.455772   0.000000   0.000000
   18       26.735067     26.735359   0.000000   0.000000
   19       29.204002     29.203720   0.000000   0.000000
   20       29.204016     29.203734   0.000000   0.000000
   21       31.527950     31.528732   0.000000   0.000000
   22       31.527964     31.528746   0.000000   0.000000
   23       32.427950     32.428280   0.000000   0.000000
   24       34.700869     34.701473   0.000000   0.000000
   25       36.663033     36.663324   0.000000   0.000000
   26       36.663042     36.663333   0.000000   0.000000
   27       37.745225     37.744922   0.000000   0.000000
   28       39.578263     39.577919   0.000000   0.000000
   29       39.578265     39.577921   0.000000   0.000000
   30       41.992478     41.992374   0.000000   0.000000
   31       41.992498     41.992397   0.000000   0.000000
   32       43.823819     43.821860   0.000000   0.000000
 
  0.2500000E+00  0.0000000E+00 -0.1387779E-16  0.1562500E-01
    1       -5.414787     -5.413822   1.000000   1.000000
    2        1.727324      1.728309   1.000000   1.000000
    3        4.868108      4.869136   1.000000   1.000000
    4        4.868112      4.869140   1.000000   1.000000
    5        7.571124      7.571978   0.000000   0.000000
    6        9.102411      9.103252   0.000000   0.000000
    7        9.102414      9.103255   0.000000   0.000000
    8       12.361429     12.362416   0.000000   0.000000
    9       12.799888     12.800249   0.000000   0.000000
   10       12.799891     12.800252   0.000000   0.000000
   11       14.542906     14.543054   0.000000   0.000000
   12       17.323753     17.324045   0.000000   0.000000
   13       20.124646     20.124974   0.000000   0.000000
   14       20.124657     20.124985   0.000000   0.000000
   15       23.289616     23.289927   0.000000   0.000000
   16       23.289622     23.289933   0.000000   0.000000
   17       23.374141     23.374459   0.000000   0.000000
   18       25.482535     25.482557   0.000000   0.000000
   19       29.379212     29.378885   0.000000   0.000000
   20       29.379224     29.378898   0.000000   0.000000
   21       31.881661     31.882368   0.000000   0.000000
   22       31.881675     31.882381   0.000000   0.000000
   23       33.138323     33.138133   0.000000   0.000000
   24       34.701259     34.701305   0.000000   0.000000
   25       35.211214     35.211814   0.000000   0.000000
   26       37.104016     37.104408   0.000000   0.000000
   27       37.104035     37.104427   0.000000   0.000000
   28       38.744740     38.744508   0.000000   0.000000
   29       38.744742     38.744510   0.000000   0.000000
   30       39.645351     39.645305   0.000000   0.000000
   31       39.645360     39.645315   0.000000   0.000000
   32       43.385327     43.385872   0.000000   0.000000
 
  0.3750000E+00  0.0000000E+00  0.2775558E-16  0.1562500E-01
    1       -4.540627     -4.539634   1.000000   1.000000
    2       -0.256381     -0.255433   1.000000   1.000000
    3        4.545405      4.546450   1.000000   1.000000
    4        4.545410      4.546455   1.000000   1.000000
    5        7.206619      7.207442   0.000000   0.000000
    6        9.065743      9.066470   0.000000   0.000000
    7        9.065748      9.066476   0.000000   0.000000
    8       13.450770     13.451074   0.000000   0.000000
    9       14.151357     14.151773   0.000000   0.000000
   10       14.151359     14.151775   0.000000   0.000000
   11       15.123029     15.123676   0.000000   0.000000
   12       19.231546     19.231961   0.000000   0.000000
   13       19.231552     19.231967   0.000000   0.000000
   14       19.472521     19.473303   0.000000   0.000000
   15       22.070676     22.070947   0.000000   0.000000
   16       23.982582     23.982839   0.000000   0.000000
   17       23.982596     23.982853   0.000000   0.000000
   18       28.372724     28.372578   0.000000   0.000000
   19       29.204286     29.204287   0.000000   0.000000
   20       29.214220     29.213919   0.000000   0.000000
   21       29.214224     29.213923   0.000000   0.000000
   22       32.066070     32.066590   0.000000   0.000000
   23       32.066078     32.066598   0.000000   0.000000
   24       33.639555     33.640114   0.000000   0.000000
   25       33.639569     33.640128   0.000000   0.000000
   26       35.116397     35.116218   0.000000   0.000000
   27       35.887786     35.888377   0.000000   0.000000
   28       37.837044     37.837063   0.000000   0.000000
   29       37.837048     37.837068   0.000000   0.000000
   30       38.778955     38.779083   0.000000   0.000000
   31       38.778965     38.779093   0.000000   0.000000
   32       39.930000     39.930257   0.000000   0.000000
 
  0.5000000E+00  0.0000000E+00 -0.2775558E-16  0.7812500E-02
    1       -3.921681     -3.920653   1.000000   1.000000
    2       -1.253946     -1.253035   1.000000   1.000000
    3        4.434800      4.435853   1.000000   1.000000
    4        4.434805      4.435858   1.000000   1.000000
    5        7.078474      7.079289   0.000000   0.000000
    6        8.962253      8.962942   0.000000   0.000000
    7        8.962259      8.962948   0.000000   0.000000
    8       13.315780     13.315934   0.000000   0.000000
    9       16.107156     16.107374   0.000000   0.000000
   10       16.107161     16.107379   0.000000   0.000000
   11       16.792675     16.793200   0.000000   0.000000
   12       16.830484     16.831155   0.000000   0.000000
   13       16.830489     16.831159   0.000000   0.000000
   14       18.348379     18.349553   0.000000   0.000000
   15       24.750456     24.750321   0.000000   0.000000
   16       25.357655     25.358120   0.000000   0.000000
   17       27.057772     27.057701   0.000000   0.000000
   18       27.057788     27.057717   0.000000   0.000000
   19       27.176109     27.176291   0.000000   0.000000
   20       27.176118     27.176299   0.000000   0.000000
   21       31.046578     31.046044   0.000000   0.000000
   22       31.759784     31.759972   0.000000   0.000000
   23       31.759786     31.759975   0.000000   0.000000
   24       32.679652     32.680312   0.000000   0.000000
   25       32.679663     32.680323   0.000000   0.000000
   26       33.661003     33.661207   0.000000   0.000000
   27       36.261605     36.262190   0.000000   0.000000
   28       37.624758     37.624950   0.000000   0.000000
   29       37.624771     37.624964   0.000000   0.000000
   30       38.134763     38.134890   0.000000   0.000000
   31       38.134766     38.134893   0.000000   0.000000
   32       39.062342     39.062454   0.000000   0.000000
 
  0.0000000E+00  0.1250000E+00  0.1387779E-16  0.1171875E-01
    1       -5.931430     -5.930476   1.000000   1.000000
    2        4.260484      4.261534   1.000000   1.000000
    3        4.826734      4.827732   1.000000   1.000000
    4        4.826734      4.827732   1.000000   1.000000
    5        7.628388      7.629173   0.000000   0.000000
    6        9.283807      9.284712   0.000000   0.000000
    7        9.283808      9.284713   0.000000   0.000000
    8        9.829968      9.831094   0.000000   0.000000
    9       12.096801     12.097197   0.000000   0.000000
   10       13.619816     13.620142   0.000000   0.000000
   11       14.560770     14.560912   0.000000   0.000000
   12       17.260287     17.260668   0.000000   0.000000
   13       17.260288     17.260669   0.000000   0.000000
   14       17.739263     17.739392   0.000000   0.000000
   15       22.677204     22.676970   0.000000   0.000000
   16       25.974149     25.974351   0.000000   0.000000
   17       25.974149     25.974352   0.000000   0.000000
   18       27.207655     27.207642   0.000000   0.000000
   19       27.977417     27.977843   0.000000   0.000000
   20       28.823985     28.823699   0.000000   0.000000
   21       31.771190     31.771299   0.000000   0.000000
   22       32.117631     32.118301   0.000000   0.000000
   23       32.117636     32.118307   0.000000   0.000000
   24       36.462732     36.463106   0.000000   0.000000
   25       36.462733     36.463108   0.000000   0.000000
   26       36.970077     36.970286   0.000000   0.000000
   27       38.360911     38.360798   0.000000   0.000000
   28       38.360914     38.360801   0.000000   0.000000
   29       38.476694     38.476100   0.000000   0.000000
   30       40.624772     40.624815   0.000000   0.000000
   31       42.310801     42.311371   0.000000   0.000000
   32       43.286209     43.285930   0.000000   0.000000
 
  0.2500000E+00  0.1250000E+00  0.0000000E+00  0.2343750E-01
    1       -5.669024     -5.668064   1.000000   1.000000
    2        2.938616      2.939649   1.000000   1.000000
    3        4.024510      4.025462   1.000000   1.000000
    4        5.323278      5.324310   1.000000   1.000000
    5        8.580074      8.581063   0.000000   0.000000
    6        8.721413      8.722314   0.000000   0.000000
    7        8.943468      8.944209   0.000000   0.000000
    8       11.041253     11.042172   0.000000   0.000000
    9       11.968997     11.969310   0.000000   0.000000
   10       13.577492     13.577992   0.000000   0.000000
   11       15.268332     15.268582   0.000000   0.000000
   12       16.726799     16.726930   0.000000   0.000000
   13       17.890117     17.890463   0.000000   0.000000
   14       19.969407     19.969736   0.000000   0.000000
   15       23.127941     23.128293   0.000000   0.000000
   16       23.577128     23.576975   0.000000   0.000000
   17       26.325273     26.325612   0.000000   0.000000
   18       26.563724     26.563665   0.000000   0.000000
   19       27.064881     27.065209   0.000000   0.000000
   20       28.397527     28.397513   0.000000   0.000000
   21       31.777470     31.777787   0.000000   0.000000
   22       32.001819     32.002272   0.000000   0.000000
   23       34.011207     34.011341   0.000000   0.000000
   24       35.722111     35.721883   0.000000   0.000000
   25       35.989909     35.990208   0.000000   0.000000
   26       37.288983     37.289158   0.000000   0.000000
   27       37.498933     37.499315   0.000000   0.000000
   28       38.997894     38.997913   0.000000   0.000000
   29       39.104826     39.104916   0.000000   0.000000
   30       39.633646     39.633565   0.000000   0.000000
   31       41.168853     41.169163   0.000000   0.000000
   32       41.170489     41.170316   0.000000   0.000000
 
  0.3750000E+00  0.1250000E+00  0.1387779E-16  0.4687500E-01
    1       -4.973132     -4.972155   1.000000   1.000000
    2        1.032299      1.033298   1.000000   1.000000
    3        3.347231      3.348184   1.000000   1.000000
    4        4.851766      4.852809   1.000000   1.000000
    5        8.267631      8.268505   0.000000   0.000000
    6        9.273751      9.274589   0.000000   0.000000
    7        9.448250      9.448930   0.000000   0.000000
    8       11.823088     11.823809   0.000000   0.000000
    9       12.089020     12.089371   0.000000   0.000000
   10       15.357313     15.357672   0.000000   0.000000
   11       15.569726     15.570313   0.000000   0.000000
   12       17.914270     17.914609   0.000000   0.000000
   13       19.463733     19.463973   0.000000   0.000000
   14       20.907873     20.908278   0.000000   0.000000
   15       21.836621     21.836865   0.000000   0.000000
   16       23.416784     23.417235   0.000000   0.000000
   17       24.263782     24.264109   0.000000   0.000000
   18       27.154882     27.154818   0.000000   0.000000
   19       27.350408     27.350510   0.000000   0.000000
   20       28.253473     28.253523   0.000000   0.000000
   21       31.353865     31.353793   0.000000   0.000000
   22       31.821424     31.821675   0.000000   0.000000
   23       32.640709     32.640920   0.000000   0.000000
   24       34.769855     34.770425   0.000000   0.000000
   25       34.941414     34.941363   0.000000   0.000000
   26       36.200563     36.200841   0.000000   0.000000
   27       36.377951     36.378227   0.000000   0.000000
   28       37.445492     37.445626   0.000000   0.000000
   29       38.411501     38.411989   0.000000   0.000000
   30       39.478382     39.478127   0.000000   0.000000
   31       39.783610     39.783544   0.000000   0.000000
   32       42.284558     42.284822   0.000000   0.000000
 
  0.5000000E+00  0.1250000E+00 -0.1387779E-16  0.4687500E-01
    1       -4.071833     -4.070823   1.000000   1.000000
    2       -0.682537     -0.681586   1.000000   1.000000
    3        3.192925      3.193893   1.000000   1.000000
    4        4.370726      4.371769   1.000000   1.000000
    5        7.924745      7.925544   0.000000   0.000000
    6        9.220541      9.221192   0.000000   0.000000
    7        9.476559      9.477285   0.000000   0.000000
    8       13.439524     13.440149   0.000000   0.000000
    9       13.670978     13.671405   0.000000   0.000000
   10       14.747064     14.747416   0.000000   0.000000
   11       16.688569     16.689005   0.000000   0.000000
   12       17.892333     17.892935   0.000000   0.000000
   13       19.737296     19.737677   0.000000   0.000000
   14       20.094873     20.095657   0.000000   0.000000
   15       22.303427     22.303641   0.000000   0.000000
   16       24.068324     24.068513   0.000000   0.000000
   17       25.906103     25.906280   0.000000   0.000000
   18       27.516590     27.516753   0.000000   0.000000
   19       27.776274     27.776189   0.000000   0.000000
   20       27.905169     27.905163   0.000000   0.000000
   21       30.059673     30.060207   0.000000   0.000000
   22       30.489474     30.489229   0.000000   0.000000
   23       32.703508     32.703628   0.000000   0.000000
   24       32.785990     32.786393   0.000000   0.000000
   25       33.158781     33.159153   0.000000   0.000000
   26       34.470662     34.470870   0.000000   0.000000
   27       35.569041     35.569647   0.000000   0.000000
   28       36.575817     36.575849   0.000000   0.000000
   29       38.497412     38.497814   0.000000   0.000000
   30       38.796353     38.796312   0.000000   0.000000
   31       38.861448     38.861460   0.000000   0.000000
   32       40.174429     40.174681   0.000000   0.000000
 
 -0.3750000E+00  0.1250000E+00 -0.8326673E-16  0.4687500E-01
    1       -3.834695     -3.833671   1.000000   1.000000
    2       -1.043575     -1.042639   1.000000   1.000000
    3        3.368001      3.368981   1.000000   1.000000
    4        4.081585      4.082620   1.000000   1.000000
    5        7.775637      7.776378   0.000000   0.000000
    6        9.101246      9.101954   0.000000   0.000000
    7        9.706053      9.706758   0.000000   0.000000
    8       12.916662     12.917250   0.000000   0.000000
    9       14.556138     14.556384   0.000000   0.000000
   10       16.028482     16.028801   0.000000   0.000000
   11       17.012919     17.013439   0.000000   0.000000
   12       17.149300     17.149855   0.000000   0.000000
   13       17.934158     17.934950   0.000000   0.000000
   14       20.442098     20.442769   0.000000   0.000000
   15       23.714769     23.714877   0.000000   0.000000
   16       25.074654     25.074851   0.000000   0.000000
   17       25.702287     25.702430   0.000000   0.000000
   18       26.462518     26.462618   0.000000   0.000000
   19       27.304581     27.304593   0.000000   0.000000
   20       27.675836     27.675903   0.000000   0.000000
   21       30.031020     30.031489   0.000000   0.000000
   22       31.336487     31.336217   0.000000   0.000000
   23       31.718170     31.718618   0.000000   0.000000
   24       32.822216     32.822505   0.000000   0.000000
   25       33.382857     33.382929   0.000000   0.000000
   26       34.957466     34.957562   0.000000   0.000000
   27       35.241945     35.242540   0.000000   0.000000
   28       35.623918     35.624321   0.000000   0.000000
   29       38.047026     38.046913   0.000000   0.000000
   30       38.378347     38.378682   0.000000   0.000000
   31       39.037527     39.037749   0.000000   0.000000
   32       40.135417     40.135619   0.000000   0.000000
 
 -0.2500000E+00  0.1250000E+00  0.2775558E-16  0.4687500E-01
    1       -4.673247     -4.672262   1.000000   1.000000
    2        0.386244      0.387227   1.000000   1.000000
    3        3.804876      3.805863   1.000000   1.000000
    4        4.059651      4.060672   1.000000   1.000000
    5        7.840900      7.841620   0.000000   0.000000
    6        9.204688      9.205534   0.000000   0.000000
    7       10.053874     10.054632   0.000000   0.000000
    8       11.052107     11.052639   0.000000   0.000000
    9       14.881564     14.881954   0.000000   0.000000
   10       14.893168     14.893594   0.000000   0.000000
   11       15.401622     15.402220   0.000000   0.000000
   12       18.881566     18.881983   0.000000   0.000000
   13       18.894224     18.894757   0.000000   0.000000
   14       20.650281     20.650487   0.000000   0.000000
   15       22.148620     22.148938   0.000000   0.000000
   16       23.053913     23.054300   0.000000   0.000000
   17       24.021186     24.021479   0.000000   0.000000
   18       27.247529     27.247553   0.000000   0.000000
   19       27.965733     27.965730   0.000000   0.000000
   20       28.939685     28.939707   0.000000   0.000000
   21       30.098841     30.099022   0.000000   0.000000
   22       30.857319     30.857279   0.000000   0.000000
   23       32.762852     32.763292   0.000000   0.000000
   24       34.351407     34.351705   0.000000   0.000000
   25       35.411581     35.412221   0.000000   0.000000
   26       35.593255     35.593284   0.000000   0.000000
   27       35.765069     35.764913   0.000000   0.000000
   28       36.951327     36.951593   0.000000   0.000000
   29       37.972302     37.972634   0.000000   0.000000
   30       38.477034     38.477042   0.000000   0.000000
   31       40.069671     40.069836   0.000000   0.000000
   32       41.454176     41.454477   0.000000   0.000000
 
 -0.1250000E+00  0.1250000E+00 -0.2775558E-16  0.4687500E-01
    1       -5.471500     -5.470536   1.000000   1.000000
    2        2.407475      2.408499   1.000000   1.000000
    3        4.324512      4.325519   1.000000   1.000000
    4        4.388055      4.389051   1.000000   1.000000
    5        7.757947      7.758689   0.000000   0.000000
    6        9.236321      9.237315   0.000000   0.000000
    7       10.039360     10.040226   0.000000   0.000000
    8       10.351545     10.352070   0.000000   0.000000
    9       12.971297     12.972135   0.000000   0.000000
   10       13.780897     13.781239   0.000000   0.000000
   11       15.548026     15.548265   0.000000   0.000000
   12       17.109629     17.109808   0.000000   0.000000
   13       18.652200     18.652554   0.000000   0.000000
   14       19.900524     19.900731   0.000000   0.000000
   15       23.023034     23.023360   0.000000   0.000000
   16       23.484041     23.484452   0.000000   0.000000
   17       24.686030     24.685921   0.000000   0.000000
   18       26.920412     26.920806   0.000000   0.000000
   19       26.940308     26.940350   0.000000   0.000000
   20       28.385145     28.385230   0.000000   0.000000
   21       31.529911     31.529922   0.000000   0.000000
   22       32.501099     32.501694   0.000000   0.000000
   23       33.522676     33.522622   0.000000   0.000000
   24       35.104408     35.104473   0.000000   0.000000
   25       36.694798     36.694887   0.000000   0.000000
   26       37.003463     37.003816   0.000000   0.000000
   27       37.354139     37.354228   0.000000   0.000000
   28       38.191895     38.192054   0.000000   0.000000
   29       38.736685     38.736628   0.000000   0.000000
   30       39.436767     39.436795   0.000000   0.000000
   31       40.986138     40.986761   0.000000   0.000000
   32       41.020082     41.020068   0.000000   0.000000
 
  0.0000000E+00  0.2500000E+00  0.2775558E-16  0.1171875E-01
    1       -5.137205     -5.136235   1.000000   1.000000
    2        2.094488      2.095562   1.000000   1.000000
    3        3.764959      3.765963   1.000000   1.000000
    4        3.764960      3.765964   1.000000   1.000000
    5        6.764986      6.765625   0.000000   0.000000
    6        8.748945      8.749475   0.000000   0.000000
    7       11.301204     11.302076   0.000000   0.000000
    8       11.301205     11.302077   0.000000   0.000000
    9       13.478283     13.479254   0.000000   0.000000
   10       14.512705     14.513022   0.000000   0.000000
   11       16.913501     16.913794   0.000000   0.000000
   12       18.528758     18.529096   0.000000   0.000000
   13       18.528759     18.529096   0.000000   0.000000
   14       19.241432     19.241325   0.000000   0.000000
   15       22.829457     22.829885   0.000000   0.000000
   16       22.829457     22.829886   0.000000   0.000000
   17       23.781444     23.781595   0.000000   0.000000
   18       25.669555     25.670247   0.000000   0.000000
   19       26.341059     26.340921   0.000000   0.000000
   20       30.271229     30.270979   0.000000   0.000000
   21       31.589781     31.589440   0.000000   0.000000
   22       32.569780     32.570202   0.000000   0.000000
   23       32.569784     32.570206   0.000000   0.000000
   24       34.767927     34.768346   0.000000   0.000000
   25       34.767931     34.768350   0.000000   0.000000
   26       34.942494     34.942104   0.000000   0.000000
   27       35.606577     35.606867   0.000000   0.000000
   28       39.908149     39.907996   0.000000   0.000000
   29       40.361578     40.362155   0.000000   0.000000
   30       40.583362     40.583447   0.000000   0.000000
   31       40.583362     40.583448   0.000000   0.000000
   32       42.257514     42.257151   0.000000   0.000000
 
  0.5000000E+00  0.2500000E+00  0.0000000E+00  0.2343750E-01
    1       -4.196027     -4.195029   1.000000   1.000000
    2        0.174203      0.175240   1.000000   1.000000
    3        1.945245      1.946116   1.000000   1.000000
    4        4.311038      4.312073   1.000000   1.000000
    5        8.050567      8.051260   0.000000   0.000000
    6       10.360532     10.361415   0.000000   0.000000
    7       10.696031     10.696606   0.000000   0.000000
    8       11.652681     11.653526   0.000000   0.000000
    9       12.066950     12.067250   0.000000   0.000000
   10       15.132995     15.133680   0.000000   0.000000
   11       18.105987     18.106257   0.000000   0.000000
   12       18.640139     18.640689   0.000000   0.000000
   13       18.956045     18.956264   0.000000   0.000000
   14       22.116461     22.116748   0.000000   0.000000
   15       22.494039     22.494117   0.000000   0.000000
   16       22.811780     22.812372   0.000000   0.000000
   17       24.077826     24.078343   0.000000   0.000000
   18       26.567349     26.567621   0.000000   0.000000
   19       27.108394     27.108513   0.000000   0.000000
   20       29.285187     29.285006   0.000000   0.000000
   21       30.169103     30.169008   0.000000   0.000000
   22       30.602361     30.602503   0.000000   0.000000
   23       32.081677     32.082030   0.000000   0.000000
   24       32.412752     32.413134   0.000000   0.000000
   25       33.045568     33.045624   0.000000   0.000000
   26       34.568913     34.569795   0.000000   0.000000
   27       35.605129     35.604924   0.000000   0.000000
   28       36.460899     36.461271   0.000000   0.000000
   29       39.308913     39.308831   0.000000   0.000000
   30       39.521461     39.521189   0.000000   0.000000
   31       41.267317     41.267926   0.000000   0.000000
   32       42.182005     42.182097   0.000000   0.000000
 
 -0.3750000E+00  0.2500000E+00  0.0000000E+00  0.4687500E-01
    1       -3.339340     -3.338308   1.000000   1.000000
    2       -0.959442     -0.958443   1.000000   1.000000
    3        1.704512      1.705389   1.000000   1.000000
    4        3.765032      3.766058   1.000000   1.000000
    5        7.469290      7.469881   0.000000   0.000000
    6       11.013767     11.014395   0.000000   0.000000
    7       11.054641     11.055401   0.000000   0.000000
    8       12.495355     12.496038   0.000000   0.000000
    9       13.504001     13.504832   0.000000   0.000000
   10       13.560111     13.560514   0.000000   0.000000
   11       18.090893     18.091044   0.000000   0.000000
   12       20.292334     20.292649   0.000000   0.000000
   13       20.503879     20.504779   0.000000   0.000000
   14       21.435314     21.435707   0.000000   0.000000
   15       21.888931     21.889223   0.000000   0.000000
   16       23.790205     23.790497   0.000000   0.000000
   17       24.807809     24.808196   0.000000   0.000000
   18       25.351400     25.351333   0.000000   0.000000
   19       27.185260     27.185378   0.000000   0.000000
   20       27.493444     27.493602   0.000000   0.000000
   21       30.075506     30.075486   0.000000   0.000000
   22       30.681119     30.681442   0.000000   0.000000
   23       31.140453     31.141127   0.000000   0.000000
   24       31.682996     31.683135   0.000000   0.000000
   25       33.211706     33.211566   0.000000   0.000000
   26       33.958199     33.958129   0.000000   0.000000
   27       34.560027     34.560810   0.000000   0.000000
   28       35.365532     35.365735   0.000000   0.000000
   29       38.697538     38.697628   0.000000   0.000000
   30       39.354543     39.354569   0.000000   0.000000
   31       40.981930     40.982410   0.000000   0.000000
   32       41.205503     41.205634   0.000000   0.000000
 
 -0.2500000E+00  0.2500000E+00 -0.5551115E-16  0.4687500E-01
    1       -3.536385     -3.535368   1.000000   1.000000
    2       -0.709635     -0.708619   1.000000   1.000000
    3        2.151690      2.152591   1.000000   1.000000
    4        3.453917      3.454935   1.000000   1.000000
    5        7.155380      7.155940   0.000000   0.000000
    6       10.044856     10.045405   0.000000   0.000000
    7       11.257680     11.258547   0.000000   0.000000
    8       11.488955     11.489674   0.000000   0.000000
    9       15.697647     15.698272   0.000000   0.000000
   10       16.072174     16.072564   0.000000   0.000000
   11       17.660296     17.660738   0.000000   0.000000
   12       18.131304     18.132055   0.000000   0.000000
   13       18.487017     18.487421   0.000000   0.000000
   14       22.265736     22.265870   0.000000   0.000000
   15       23.166435     23.166650   0.000000   0.000000
   16       23.975225     23.975798   0.000000   0.000000