       N       E                     dE             d eps       ncg     rms          rms(c)
DAV:   1    -0.560781054708E+01   -0.56078E+01   -0.30994E+03  3744   0.178E+02
DAV:   2    -0.108269978731E+02   -0.52192E+01   -0.52161E+01  5632   0.174E+01
DAV:   3    -0.108355950453E+02   -0.85972E-02   -0.85972E-02  3712   0.883E-01
DAV:   4    -0.108356021738E+02   -0.71285E-05   -0.71285E-05  7168   0.263E-02
DAV:   5    -0.108356021738E+02   -0.30070E-10   -0.30158E-10  3712   0.362E-05    0.373E+00
RMM:   6    -0.108853649877E+02   -0.49763E-01   -0.22427E-02  3712   0.376E-01    0.190E+00
RMM:   7    -0.108246628329E+02    0.60702E-01   -0.20131E-02  3712   0.368E-01    0.103E+00
RMM:   8    -0.108422796725E+02   -0.17617E-01   -0.64141E-03  3712   0.218E-01    0.175E-01
RMM:   9    -0.108418914271E+02    0.38825E-03   -0.25988E-04  3690   0.395E-02    0.971E-02
RMM:  10    -0.108418288628E+02    0.62564E-04   -0.20389E-04  3711   0.349E-02
   1 F= -.10841829E+02 E0= -.10841829E+02  d E =-.108418E+02  mag=     0.0007
       N       E                     dE             d eps       ncg     rms          rms(c)
DAV:   1    -0.108514231178E+02   -0.95317E-02   -0.26626E-01  4096   0.730E-01    0.328E-01
RMM:   2    -0.108467804293E+02    0.46427E-02   -0.63730E-04  3712   0.772E-02    0.187E-01
RMM:   3    -0.108444135923E+02    0.23668E-02   -0.64052E-04  3712   0.507E-02    0.274E-02
RMM:   4    -0.108444188507E+02   -0.52584E-05   -0.17132E-05  2740   0.111E-02
   2 F= -.10844419E+02 E0= -.10844419E+02  d E =-.258999E-02  mag=    -0.0001
       N       E                     dE             d eps       ncg     rms          rms(c)
DAV:   1    -0.108477983360E+02   -0.33847E-02   -0.42796E-02  4832   0.296E-01    0.132E-01
RMM:   2    -0.108470702803E+02    0.72806E-03   -0.90074E-05  3629   0.284E-02    0.753E-02
RMM:   3    -0.108467101926E+02    0.36009E-03   -0.96367E-05  3649   0.200E-02    0.107E-02
RMM:   4    -0.108467146208E+02   -0.44281E-05   -0.21748E-06  1974   0.417E-03
   3 F= -.10846715E+02 E0= -.10846715E+02  d E =-.488576E-02  mag=     0.0000
