 vasp.5.4.1 24Jun15 (build Feb 01 2016 23:38:11) complex                        
  
 executed on           IFC91_impi date 2016.08.03  15:40:47
 running on   32 total cores
 distrk:  each k-point on   32 cores,    1 groups
 distr:  one band on NCORES_PER_BAND=   1 cores,   32 groups


--------------------------------------------------------------------------------------------------------


 INCAR:
 POTCAR:   PAW_PBE Si 05Jan2001                   

 ----------------------------------------------------------------------------- 
|                                                                             |
|           W    W    AA    RRRRR   N    N  II  N    N   GGGG   !!!           |
|           W    W   A  A   R    R  NN   N  II  NN   N  G    G  !!!           |
|           W    W  A    A  R    R  N N  N  II  N N  N  G       !!!           |
|           W WW W  AAAAAA  RRRRR   N  N N  II  N  N N  G  GGG   !            |
|           WW  WW  A    A  R   R   N   NN  II  N   NN  G    G                |
|           W    W  A    A  R    R  N    N  II  N    N   GGGG   !!!           |
|                                                                             |
|      For optimal performance we recommend to set                            |
|        NCORE= 4 - approx SQRT( number of cores)                             |
|      NCORE specifies how many cores store one orbital (NPAR=cpu/NCORE).     |
|      This setting can  greatly improve the performance of VASP for DFT.     |
|      The default, NPAR=number of cores might be grossly inefficient         |
|      on modern multi-core architectures or massively parallel machines.     |
|      Do your own testing !!!!                                               |
|      Unfortunately you need to use the default for GW and RPA calculations. |
|      (for HF NCORE is supported but not extensively tested yet)             |
|                                                                             |
 ----------------------------------------------------------------------------- 

 POTCAR:   PAW_PBE Si 05Jan2001                   
   VRHFIN =Si: s2p2                                                             
   LEXCH  = PE                                                                  
   EATOM  =   103.0669 eV,    7.5752 Ry                                         
                                                                                
   TITEL  = PAW_PBE Si 05Jan2001                                                
   LULTRA =        F    use ultrasoft PP ?                                      
   IUNSCR =        1    unscreen: 0-lin 1-nonlin 2-no                           
   RPACOR =    1.500    partial core radius                                     
   POMASS =   28.085; ZVAL   =    4.000    mass and valenz                      
   RCORE  =    1.900    outmost cutoff radius                                   
   RWIGS  =    2.480; RWIGS  =    1.312    wigner-seitz radius (au A)           
   ENMAX  =  245.345; ENMIN  =  184.009 eV                                      
   ICORE  =        2    local potential                                         
   LCOR   =        T    correct aug charges                                     
   LPAW   =        T    paw PP                                                  
   EAUG   =  322.069                                                            
   DEXC   =    -.007                                                            
   RMAX   =    2.944    core radius for proj-oper                               
   RAUG   =    1.300    factor for augmentation sphere                          
   RDEP   =    1.993    radius for radial grids                                 
   QCUT   =   -4.246; QGAM   =    8.493    optimization parameters              
                                                                                
   Description                                                                  
     l     E      TYP  RCUT    TYP  RCUT                                        
     0   .000     23  1.900                                                     
     0   .000     23  1.900                                                     
     1   .000     23  1.900                                                     
     1   .000     23  1.900                                                     
     2   .000      7  1.900                                                     
  local pseudopotential read in
  partial core-charges read in
  atomic valenz-charges read in
  non local Contribution for L=           0  read in
    real space projection operators read in
  non local Contribution for L=           0  read in
    real space projection operators read in
  non local Contribution for L=           1  read in
    real space projection operators read in
  non local Contribution for L=           1  read in
    real space projection operators read in
    PAW grid and wavefunctions read in
 
   number of l-projection  operators is LMAX  =           4
   number of lm-projection operators is LMMAX =           8
 

 ----------------------------------------------------------------------------- 
|                                                                             |
|  ADVICE TO THIS USER RUNNING 'VASP/VAMP'   (HEAR YOUR MASTER'S VOICE ...):  |
|                                                                             |
|      You have a (more or less) 'small supercell' and for smaller cells      |
|      it is recommended  to use the reciprocal-space projection scheme!      |
|      The real space optimization is not  efficient for small cells and it   |
|      is also less accurate ...                                              |
|      Therefore set LREAL=.FALSE. in the  INCAR file                         |
|                                                                             |
 ----------------------------------------------------------------------------- 

 Optimization of the real space projectors (new method)

 maximal supplied QI-value         = 19.84
 optimisation between [QCUT,QGAM] = [ 11.51, 23.22] = [ 37.09,150.92] Ry 
 Optimized for a Real-space Cutoff    1.21 Angstroem

   l    n(q)    QCUT    max X(q) W(low)/X(q) W(high)/X(q)  e(spline) 
   0      8    11.508     8.708    0.18E-04    0.44E-05    0.47E-08
   0      8    11.508   106.241    0.70E-04    0.15E-03    0.51E-07
   1      8    11.508     5.901    0.63E-05    0.23E-04    0.21E-07
   1      8    11.508    73.241    0.15E-03    0.36E-04    0.79E-07
 PAW_PBE Si 05Jan2001                   :
 energy of atom  1       EATOM= -103.0669
 kinetic energy error for atom=    0.0005 (will be added to EATOM!!)
 
 
 POSCAR: Si2                                     
  positions in direct lattice
  No initial velocities read in
 exchange correlation table for  LEXCH =        8
   RHO(1)=    0.500       N(1)  =     2000
   RHO(2)=  100.500       N(2)  =     4000
 


--------------------------------------------------------------------------------------------------------


 ion  position               nearest neighbor table
   1  0.000  0.000  0.000-   2 2.35   2 2.35   2 2.35   2 2.35
   2  0.750  0.500  0.750-   1 2.35   1 2.35   1 2.35   1 2.35
 
  LATTYP: Found a face centered cubic cell.
 ALAT       =     5.4308612897
  
  Lattice vectors:
  
 A1 = (   1.9200990000,   3.3257100000,   0.0000000000)
 A2 = (   0.0000000000,   2.2171380000,  -3.1355090000)
 A3 = (  -1.9200990000,   3.3257100000,   0.0000000000)


Analysis of symmetry for initial positions (statically):
=====================================================================
 Subroutine PRICEL returns:
 Original cell was already a primitive cell.
 

 Routine SETGRP: Setting up the symmetry group for a 
 face centered cubic supercell.


 Subroutine GETGRP returns: Found 48 space group operations
 (whereof 24 operations were pure point group operations)
 out of a pool of 48 trial point group operations.


The static configuration has the point symmetry T_d .
 The point group associated with its full space group is O_h .


Analysis of symmetry for dynamics (positions and initial velocities):
=====================================================================
 Subroutine PRICEL returns:
 Original cell was already a primitive cell.
 

 Routine SETGRP: Setting up the symmetry group for a 
 face centered cubic supercell.


 Subroutine GETGRP returns: Found 48 space group operations
 (whereof 24 operations were pure point group operations)
 out of a pool of 48 trial point group operations.


The dynamic configuration has the point symmetry T_d .
 The point group associated with its full space group is O_h .


Analysis of structural, dynamic, and magnetic symmetry:
=====================================================================
 Subroutine PRICEL returns:
 Original cell was already a primitive cell.
 

 Routine SETGRP: Setting up the symmetry group for a 
 face centered cubic supercell.


 Subroutine GETGRP returns: Found 48 space group operations
 (whereof 24 operations were pure point group operations)
 out of a pool of 48 trial point group operations.


The magnetic configuration has the point symmetry T_d .
 The point group associated with its full space group is O_h .


 Subroutine INISYM returns: Found 48 space group operations
 (whereof 24 operations are pure point group operations),
 and found     1 'primitive' translations

 
 
 KPOINTS: pymatgen generated KPOINTS with grid den

Automatic generation of k-mesh.
Space group operators:
 irot       det(A)        alpha          n_x          n_y          n_z        tau_x        tau_y        tau_z
    1     1.000000     0.000000     1.000000     0.000000     0.000000     0.000000     0.000000     0.000000
    2     1.000000   120.000000    -0.000001    -0.942809     0.333334     0.000000     0.000000     0.000000
    3     1.000000   120.000000    -0.000001     0.942809    -0.333334     0.000000     0.000000     0.000000
    4    -1.000000    90.000000    -0.707107    -0.408248     0.577350     0.000000     0.000000     0.000000
    5    -1.000000   180.000000     0.500000     0.866025    -0.000001     0.000000     0.000000     0.000000
    6    -1.000000    90.000000    -0.000000     0.816497     0.577350     0.000000     0.000000     0.000000
    7     1.000000   180.000000     0.707107     0.408248    -0.577350     0.000000     0.000000     0.000000
    8     1.000000   120.000000     0.816497     0.471405     0.333333     0.000000     0.000000     0.000000
    9     1.000000   120.000000     0.000001     0.000000     1.000000     0.000000     0.000000     0.000000
   10    -1.000000    90.000000     0.707107     0.408248    -0.577350     0.000000     0.000000     0.000000
   11    -1.000000    90.000000     0.707107    -0.408248     0.577350     0.000000     0.000000     0.000000
   12    -1.000000   180.000000     0.000000    -0.577350     0.816497     0.000000     0.000000     0.000000
   13     1.000000   120.000000     0.000001    -0.000000    -1.000000     0.000000     0.000000     0.000000
   14     1.000000   120.000000     0.816497    -0.471405    -0.333333     0.000000     0.000000     0.000000
   15     1.000000   180.000000     0.707107    -0.408248     0.577350     0.000000     0.000000     0.000000
   16    -1.000000    90.000000    -0.000000    -0.816497    -0.577350     0.000000     0.000000     0.000000
   17    -1.000000   180.000000    -0.500000     0.866025    -0.000001     0.000000     0.000000     0.000000
   18    -1.000000    90.000000    -0.707107     0.408248    -0.577350     0.000000     0.000000     0.000000
   19     1.000000   120.000000    -0.816497    -0.471404    -0.333334     0.000000     0.000000     0.000000
   20     1.000000   180.000000     0.000000    -0.816497    -0.577350     0.000000     0.000000     0.000000
   21     1.000000   120.000000    -0.816497     0.471404     0.333334     0.000000     0.000000     0.000000
   22    -1.000000   179.999999    -0.500000     0.288675     0.816496     0.000000     0.000000     0.000000
   23    -1.000000   179.999999     0.500000     0.288675     0.816496     0.000000     0.000000     0.000000
   24    -1.000000   180.000000     1.000000     0.000000     0.000000     0.000000     0.000000     0.000000
   25    -1.000000     0.000000     1.000000     0.000000     0.000000    -0.250000     0.500000    -0.250000
   26    -1.000000   120.000000    -0.000001    -0.942809     0.333334    -0.250000     0.500000    -0.250000
   27    -1.000000   120.000000    -0.000001     0.942809    -0.333334    -0.250000     0.500000    -0.250000
   28     1.000000    90.000000    -0.707107    -0.408248     0.577350    -0.250000     0.500000    -0.250000
   29     1.000000   180.000000     0.500000     0.866025    -0.000001    -0.250000     0.500000    -0.250000
   30     1.000000    90.000000    -0.000000     0.816497     0.577350    -0.250000     0.500000    -0.250000
   31    -1.000000   180.000000     0.707107     0.408248    -0.577350    -0.250000     0.500000    -0.250000
   32    -1.000000   120.000000     0.816497     0.471405     0.333333    -0.250000     0.500000    -0.250000
   33    -1.000000   120.000000     0.000001     0.000000     1.000000    -0.250000     0.500000    -0.250000
   34     1.000000    90.000000     0.707107     0.408248    -0.577350    -0.250000     0.500000    -0.250000
   35     1.000000    90.000000     0.707107    -0.408248     0.577350    -0.250000     0.500000    -0.250000
   36     1.000000   180.000000     0.000000    -0.577350     0.816497    -0.250000     0.500000    -0.250000
   37    -1.000000   120.000000     0.000001    -0.000000    -1.000000    -0.250000     0.500000    -0.250000
   38    -1.000000   120.000000     0.816497    -0.471405    -0.333333    -0.250000     0.500000    -0.250000
   39    -1.000000   180.000000     0.707107    -0.408248     0.577350    -0.250000     0.500000    -0.250000
   40     1.000000    90.000000    -0.000000    -0.816497    -0.577350    -0.250000     0.500000    -0.250000
   41     1.000000   180.000000    -0.500000     0.866025    -0.000001    -0.250000     0.500000    -0.250000
   42     1.000000    90.000000    -0.707107     0.408248    -0.577350    -0.250000     0.500000    -0.250000
   43    -1.000000   120.000000    -0.816497    -0.471404    -0.333334    -0.250000     0.500000    -0.250000
   44    -1.000000   180.000000     0.000000    -0.816497    -0.577350    -0.250000     0.500000    -0.250000
   45    -1.000000   120.000000    -0.816497     0.471404     0.333334    -0.250000     0.500000    -0.250000
   46     1.000000   179.999999    -0.500000     0.288675     0.816496    -0.250000     0.500000    -0.250000
   47     1.000000   179.999999     0.500000     0.288675     0.816496    -0.250000     0.500000    -0.250000
   48     1.000000   180.000000     1.000000     0.000000     0.000000    -0.250000     0.500000    -0.250000
 
 Subroutine IBZKPT returns following result:
 ===========================================
 
 Found     29 irreducible k-points:
 
 Following reciprocal coordinates:
            Coordinates               Weight
  0.000000  0.000000  0.000000      1.000000
  0.125000  0.000000 -0.000000      8.000000
  0.250000  0.000000 -0.000000      8.000000
  0.375000  0.000000  0.000000      8.000000
  0.500000  0.000000 -0.000000      4.000000
  0.000000  0.125000  0.000000      6.000000
  0.250000  0.125000  0.000000     12.000000
  0.375000  0.125000  0.000000     24.000000
  0.500000  0.125000 -0.000000     24.000000
 -0.375000  0.125000 -0.000000     24.000000
 -0.250000  0.125000  0.000000     24.000000
 -0.125000  0.125000 -0.000000     24.000000
  0.000000  0.250000  0.000000      6.000000
  0.500000  0.250000  0.000000     12.000000
 -0.375000  0.250000  0.000000     24.000000
 -0.250000  0.250000 -0.000000     24.000000
 -0.125000  0.250000  0.000000     24.000000
  0.000000  0.375000 -0.000000      6.000000
 -0.250000  0.375000  0.000000     12.000000
 -0.125000  0.375000  0.000000     24.000000
  0.000000  0.500000  0.000000      3.000000
  0.375000  0.125000  0.125000     24.000000
  0.500000  0.125000  0.125000     48.000000
 -0.375000  0.125000  0.125000     24.000000
 -0.375000  0.250000  0.125000     24.000000
 -0.250000  0.250000  0.125000     48.000000
 -0.125000  0.250000  0.125000     24.000000
 -0.125000  0.375000  0.125000     12.000000
 -0.250000  0.250000  0.250000      6.000000
 
 Following cartesian coordinates:
            Coordinates               Weight
  0.000000  0.000000  0.000000      1.000000
  0.032550 -0.018793 -0.013289      8.000000
  0.065101 -0.037586 -0.026577      8.000000
  0.097651 -0.056379 -0.039866      8.000000
  0.130202 -0.075172 -0.053155      4.000000
  0.000000  0.037586  0.026577      6.000000
  0.065101  0.000000  0.000000     12.000000
  0.097651 -0.018793 -0.013289     24.000000
  0.130202 -0.037586 -0.026577     24.000000
 -0.097651  0.093965  0.066443     24.000000
 -0.065101  0.075172  0.053155     24.000000
 -0.032550  0.056379  0.039866     24.000000
  0.000000  0.075172  0.053155      6.000000
  0.130202  0.000000  0.000000     12.000000
 -0.097651  0.131551  0.093020     24.000000
 -0.065101  0.112758  0.079732     24.000000
 -0.032550  0.093965  0.066443     24.000000
  0.000000  0.112758  0.079732      6.000000
 -0.065101  0.150344  0.106309     12.000000
 -0.032550  0.131551  0.093020     24.000000
  0.000000  0.150344  0.106309      3.000000
  0.097651 -0.018793  0.026577     24.000000
  0.130202 -0.037586  0.013289     48.000000
 -0.097651  0.093965  0.106309     24.000000
 -0.097651  0.131551  0.132886     24.000000
 -0.065101  0.112758  0.119598     48.000000
 -0.032550  0.093965  0.106309     24.000000
 -0.032550  0.131551  0.132886     12.000000
 -0.065101  0.112758  0.159464      6.000000
 
 TETIRR: Found    336 inequivalent tetrahedra from     3072


--------------------------------------------------------------------------------------------------------




 Dimension of arrays:
   k-points           NKPTS =     29   k-points in BZ     NKDIM =     29   number of bands    NBANDS=     32
   number of dos      NEDOS =    301   number of ions     NIONS =      2
   non local maximal  LDIM  =      4   non local SUM 2l+1 LMDIM =      8
   total plane-waves  NPLWV =  27000
   max r-space proj   IRMAX =   5063   max aug-charges    IRDMAX=  22740
   dimension x,y,z NGX =    30 NGY =   30 NGZ =   30
   dimension x,y,z NGXF=    60 NGYF=   60 NGZF=   60
   support grid    NGXF=    60 NGYF=   60 NGZF=   60
   ions per type =               2
 NGX,Y,Z   is equivalent  to a cutoff of  12.99, 12.99, 12.99 a.u.
 NGXF,Y,Z  is equivalent  to a cutoff of  25.97, 25.97, 25.97 a.u.


 I would recommend the setting:
   dimension x,y,z NGX =    29 NGY =   29 NGZ =   29
 SYSTEM =  unknown system                          
 POSCAR =  Si2                                     

 Startparameter for this run:
   NWRITE =      2    write-flag & timer
   PREC   = accura    normal or accurate (medium, high low for compatibility)
   ISTART =      0    job   : 0-new  1-cont  2-samecut
   ICHARG =      1    charge: 1-file 2-atom 10-const
   ISPIN  =      2    spin polarized calculation?
   LNONCOLLINEAR =      F non collinear calculations
   LSORBIT =      F    spin-orbit coupling
   INIWAV =      1    electr: 0-lowe 1-rand  2-diag
   LASPH  =      F    aspherical Exc in radial PAW
   METAGGA=      F    non-selfconsistent MetaGGA calc.

 Electronic Relaxation 1
   ENCUT  =  520.0 eV  38.22 Ry    6.18 a.u.   7.14  7.14  7.14*2*pi/ulx,y,z
   ENINI  =  520.0     initial cutoff
   ENAUG  =  322.1 eV  augmentation charge cutoff
   NELM   =    100;   NELMIN=  2; NELMDL= -5     # of ELM steps 
   EDIFF  = 0.1E-03   stopping-criterion for ELM
   LREAL  =      T    real-space projection
   NLSPLINE    = F    spline interpolate recip. space projectors
   LCOMPAT=      F    compatible to vasp.4.4
   GGA_COMPAT  = T    GGA compatible to vasp.4.4-vasp.4.6
   LMAXPAW     = -100 max onsite density
   LMAXMIX     =    2 max onsite mixed and CHGCAR
   VOSKOWN=      0    Vosko Wilk Nusair interpolation
   ROPT   =   -0.00025
 Ionic relaxation
   EDIFFG = 0.1E-02   stopping-criterion for IOM
   NSW    =     99    number of steps for IOM
   NBLOCK =      1;   KBLOCK =     99    inner block; outer block 
   IBRION =      2    ionic relax: 0-MD 1-quasi-New 2-CG
   NFREE  =      1    steps in history (QN), initial steepest desc. (CG)
   ISIF   =      3    stress and relaxation
   IWAVPR =     11    prediction:  0-non 1-charg 2-wave 3-comb
   ISYM   =      2    0-nonsym 1-usesym 2-fastsym
   LCORR  =      T    Harris-Foulkes like correction to forces

   POTIM  = 0.5000    time-step for ionic-motion
   TEIN   =    0.0    initial temperature
   TEBEG  =    0.0;   TEEND  =   0.0 temperature during run
   SMASS  =  -3.00    Nose mass-parameter (am)
   estimated Nose-frequenzy (Omega)   =  0.10E-29 period in steps =****** mass=  -0.337E-27a.u.
   SCALEE = 1.0000    scale energy and forces
   NPACO  =    256;   APACO  = 16.0  distance and # of slots for P.C.
   PSTRESS=    0.0 pullay stress

  Mass of Ions in am
   POMASS =  28.09
  Ionic Valenz
   ZVAL   =   4.00
  Atomic Wigner-Seitz radii
   RWIGS  =  -1.00
  virtual crystal weights 
   VCA    =   1.00
   NELECT =       8.0000    total number of electrons
   NUPDOWN=      -1.0000    fix difference up-down

 DOS related values:
   EMIN   =  10.00;   EMAX   =-10.00  energy-range for DOS
   EFERMI =   0.00
   ISMEAR =    -5;   SIGMA  =   0.05  broadening in eV -4-tet -1-fermi 0-gaus

 Electronic relaxation 2 (details)
   IALGO  =     68    algorithm
   LDIAG  =      T    sub-space diagonalisation (order eigenvalues)
   LSUBROT=      F    optimize rotation matrix (better conditioning)
   TURBO    =      0    0=normal 1=particle mesh
   IRESTART =      0    0=no restart 2=restart with 2 vectors
   NREBOOT  =      0    no. of reboots
   NMIN     =      0    reboot dimension
   EREF     =   0.00    reference energy to select bands
   IMIX   =      4    mixing-type and parameters
     AMIX     =   0.40;   BMIX     =  1.00
     AMIX_MAG =   1.60;   BMIX_MAG =  1.00
     AMIN     =   0.10
     WC   =   100.;   INIMIX=   1;  MIXPRE=   1;  MAXMIX= -45

 Intra band minimization:
   WEIMIN = 0.0010     energy-eigenvalue tresh-hold
   EBREAK =  0.78E-06  absolut break condition
   DEPER  =   0.30     relativ break condition  

   TIME   =   0.40     timestep for ELM

  volume/ion in A,a.u.               =      20.02       135.12
  Fermi-wavevector in a.u.,A,eV,Ry     =   0.957024  1.808513 12.461506  0.915895
  Thomas-Fermi vector in A             =   2.086005
 
 Write flags
   LWAVE  =      F    write WAVECAR
   LCHARG =      T    write CHGCAR
   LVTOT  =      F    write LOCPOT, total local potential
   LVHAR  =      F    write LOCPOT, Hartree potential only
   LELF   =      F    write electronic localiz. function (ELF)
   LORBIT =     11    0 simple, 1 ext, 2 COOP (PROOUT)


 Dipole corrections
   LMONO  =      F    monopole corrections only (constant potential shift)
   LDIPOL =      F    correct potential (dipole corrections)
   IDIPOL =      0    1-x, 2-y, 3-z, 4-all directions 
   EPSILON=  1.0000000 bulk dielectric constant

 Exchange correlation treatment:
   GGA     =    --    GGA type
   LEXCH   =     8    internal setting for exchange type
   VOSKOWN=      0    Vosko Wilk Nusair interpolation
   LHFCALC =     F    Hartree Fock is set to
   LHFONE  =     F    Hartree Fock one center treatment
   AEXX    =    0.0000 exact exchange contribution

 Linear response parameters
   LEPSILON=     F    determine dielectric tensor
   LRPA    =     F    only Hartree local field effects (RPA)
   LNABLA  =     F    use nabla operator in PAW spheres
   LVEL    =     F    velocity operator in full k-point grid
   LINTERFAST=   F  fast interpolation
   KINTER  =     0    interpolate to denser k-point grid
   CSHIFT  =0.1000    complex shift for real part using Kramers Kronig
   OMEGAMAX=  -1.0    maximum frequency
   DEG_THRESHOLD= 0.2000000E-02 threshold for treating states as degnerate
   RTIME   =    0.100 relaxation time in fs

 Orbital magnetization related:
   ORBITALMAG=     F  switch on orbital magnetization
   LCHIMAG   =     F  perturbation theory with respect to B field
   DQ        =  0.001000  dq finite difference perturbation B field



--------------------------------------------------------------------------------------------------------


 conjugate gradient relaxation of ions
 charge density and potential will be updated during run
 spin polarized calculation
 RMM-DIIS sequential band-by-band and
  variant of blocked Davidson during initial phase
 perform sub-space diagonalisation
    before iterative eigenvector-optimisation
 modified Broyden-mixing scheme, WC =      100.0
 initial mixing is a Kerker type mixing with AMIX =  0.4000 and BMIX =      1.0000
 Hartree-type preconditioning will be used
 using additional bands           28
 real space projection scheme for non local part
 use partial core corrections
 calculate Harris-corrections to forces 
   (improved forces if not selfconsistent)
 use gradient corrections 
 use of overlap-Matrix (Vanderbilt PP)
 Fermi weights with tetrahedron method with Bloechl corrections


--------------------------------------------------------------------------------------------------------


  energy-cutoff  :      520.00
  volume of cell :       40.04
      direct lattice vectors                 reciprocal lattice vectors
     3.840198000  0.000000000  0.000000000     0.260403240 -0.150343836 -0.106309066
     1.920099000  3.325710000  0.000000000     0.000000000  0.300687673  0.212618132
     0.000000000 -2.217138000  3.135509000     0.000000000  0.000000000  0.318927485

  length of vectors
     3.840198000  3.840198846  3.840197599     0.318927474  0.368265592  0.318927485


 
 k-points in units of 2pi/SCALE and weight: pymatgen generated KPOINTS with grid den
   0.00000000  0.00000000  0.00000000       0.002
   0.03255040 -0.01879298 -0.01328863       0.016
   0.06510081 -0.03758596 -0.02657727       0.016
   0.09765121 -0.05637894 -0.03986590       0.016
   0.13020162 -0.07517192 -0.05315453       0.008
   0.00000000  0.03758596  0.02657727       0.012
   0.06510081  0.00000000  0.00000000       0.023
   0.09765121 -0.01879298 -0.01328863       0.047
   0.13020162 -0.03758596 -0.02657727       0.047
  -0.09765121  0.09396490  0.06644317       0.047
  -0.06510081  0.07517192  0.05315453       0.047
  -0.03255040  0.05637894  0.03986590       0.047
   0.00000000  0.07517192  0.05315453       0.012
   0.13020162  0.00000000  0.00000000       0.023
  -0.09765121  0.13155086  0.09302043       0.047
  -0.06510081  0.11275788  0.07973180       0.047
  -0.03255040  0.09396490  0.06644317       0.047
   0.00000000  0.11275788  0.07973180       0.012
  -0.06510081  0.15034384  0.10630907       0.023
  -0.03255040  0.13155086  0.09302043       0.047
   0.00000000  0.15034384  0.10630907       0.006
   0.09765121 -0.01879298  0.02657730       0.047
   0.13020162 -0.03758596  0.01328867       0.094
  -0.09765121  0.09396490  0.10630910       0.047
  -0.09765121  0.13155086  0.13288637       0.047
  -0.06510081  0.11275788  0.11959774       0.094
  -0.03255040  0.09396490  0.10630910       0.047
  -0.03255040  0.13155086  0.13288637       0.023
  -0.06510081  0.11275788  0.15946367       0.012
 
 k-points in reciprocal lattice and weights: pymatgen generated KPOINTS with grid den
   0.00000000  0.00000000  0.00000000       0.002
   0.12500000  0.00000000 -0.00000000       0.016
   0.25000000  0.00000000 -0.00000000       0.016
   0.37500000  0.00000000  0.00000000       0.016
   0.50000000  0.00000000 -0.00000000       0.008
   0.00000000  0.12500000  0.00000000       0.012
   0.25000000  0.12500000  0.00000000       0.023
   0.37500000  0.12500000  0.00000000       0.047
   0.50000000  0.12500000 -0.00000000       0.047
  -0.37500000  0.12500000 -0.00000000       0.047
  -0.25000000  0.12500000  0.00000000       0.047
  -0.12500000  0.12500000 -0.00000000       0.047
   0.00000000  0.25000000  0.00000000       0.012
   0.50000000  0.25000000  0.00000000       0.023
  -0.37500000  0.25000000  0.00000000       0.047
  -0.25000000  0.25000000 -0.00000000       0.047
  -0.12500000  0.25000000  0.00000000       0.047
   0.00000000  0.37500000 -0.00000000       0.012
  -0.25000000  0.37500000  0.00000000       0.023
  -0.12500000  0.37500000  0.00000000       0.047
   0.00000000  0.50000000  0.00000000       0.006
   0.37500000  0.12500000  0.12500000       0.047
   0.50000000  0.12500000  0.12500000       0.094
  -0.37500000  0.12500000  0.12500000       0.047
  -0.37500000  0.25000000  0.12500000       0.047
  -0.25000000  0.25000000  0.12500000       0.094
  -0.12500000  0.25000000  0.12500000       0.047
  -0.12500000  0.37500000  0.12500000       0.023
  -0.25000000  0.25000000  0.25000000       0.012
 
 position of ions in fractional coordinates (direct lattice) 
   0.00000000  0.00000000  0.00000000
   0.75000000  0.50000000  0.75000000
 
 position of ions in cartesian coordinates  (Angst):
   0.00000000  0.00000000  0.00000000
   3.84019800  0.00000150  2.35163175
 


--------------------------------------------------------------------------------------------------------


 k-point  1 :   0.0000 0.0000 0.0000  plane waves:    1067
 k-point  2 :   0.1250 0.0000-0.0000  plane waves:    1064
 k-point  3 :   0.2500 0.0000-0.0000  plane waves:    1077
 k-point  4 :   0.3750 0.0000 0.0000  plane waves:    1083
 k-point  5 :   0.5000 0.0000-0.0000  plane waves:    1068
 k-point  6 :   0.0000 0.1250 0.0000  plane waves:    1062
 k-point  7 :   0.2500 0.1250 0.0000  plane waves:    1055
 k-point  8 :   0.3750 0.1250 0.0000  plane waves:    1076
 k-point  9 :   0.5000 0.1250-0.0000  plane waves:    1080
 k-point 10 :  -0.3750 0.1250-0.0000  plane waves:    1086
 k-point 11 :  -0.2500 0.1250 0.0000  plane waves:    1076
 k-point 12 :  -0.1250 0.1250-0.0000  plane waves:    1069
 k-point 13 :   0.0000 0.2500 0.0000  plane waves:    1062
 k-point 14 :   0.5000 0.2500 0.0000  plane waves:    1081
 k-point 15 :  -0.3750 0.2500 0.0000  plane waves:    1081
 k-point 16 :  -0.2500 0.2500-0.0000  plane waves:    1082
 k-point 17 :  -0.1250 0.2500 0.0000  plane waves:    1067
 k-point 18 :   0.0000 0.3750-0.0000  plane waves:    1074
 k-point 19 :  -0.2500 0.3750 0.0000  plane waves:    1069
 k-point 20 :  -0.1250 0.3750 0.0000  plane waves:    1080
 k-point 21 :   0.0000 0.5000 0.0000  plane waves:    1090
 k-point 22 :   0.3750 0.1250 0.1250  plane waves:    1075
 k-point 23 :   0.5000 0.1250 0.1250  plane waves:    1075
 k-point 24 :  -0.3750 0.1250 0.1250  plane waves:    1086
 k-point 25 :  -0.3750 0.2500 0.1250  plane waves:    1088
 k-point 26 :  -0.2500 0.2500 0.1250  plane waves:    1085
 k-point 27 :  -0.1250 0.2500 0.1250  plane waves:    1077
 k-point 28 :  -0.1250 0.3750 0.1250  plane waves:    1082
 k-point 29 :  -0.2500 0.2500 0.2500  plane waves:    1084

 maximum and minimum number of plane-waves per node :      1090     1055

 maximum number of plane-waves:      1090
 maximum index in each direction: 
   IXMAX=    7   IYMAX=    7   IZMAX=    7
   IXMIN=   -7   IYMIN=   -7   IZMIN=   -7

 NGX is ok and might be reduce to  30
 NGY is ok and might be reduce to  30
 NGZ is ok and might be reduce to  30

 serial   3D FFT for wavefunctions
 parallel 3D FFT for charge:
    minimum data exchange during FFTs selected (reduces bandwidth)


 total amount of memory used by VASP on root node    35025. kBytes
========================================================================

   base      :      30000. kBytes
   nonlr-proj:        859. kBytes
   fftplans  :        365. kBytes
   grid      :       2720. kBytes
   one-center:         12. kBytes
   wavefun   :       1069. kBytes
 
     INWAV:  cpu time    0.0000: real time    0.0000
 Broyden mixing: mesh for mixing (old mesh)
   NGX = 15   NGY = 15   NGZ = 15
  (NGX  = 60   NGY  = 60   NGZ  = 60)
  gives a total of   3375 points

 initial charge density was supplied:
 charge density of overlapping atoms calculated
 number of electron       8.0000000 magnetization       1.2000000
 keeping initial charge density in first step


--------------------------------------------------------------------------------------------------------


 Maximum index for non-local projection operator         4897
 Maximum index for augmentation-charges          859 (set IRDMAX)


--------------------------------------------------------------------------------------------------------


 First call to EWALD:  gamma=   0.518
 Maximum number of real-space cells 3x 3x 3
 Maximum number of reciprocal cells 3x 3x 3

 FEWALD executed in parallel
    FEWALD:  cpu time    0.0030: real time    0.0042


----------------------------------------- Iteration    1(   1)  ---------------------------------------


    POTLOK:  cpu time    0.1380: real time    0.1467
    SETDIJ:  cpu time    0.0080: real time    0.0120
     EDDAV:  cpu time    3.0445: real time    3.0742
 BZINTS: Fermi energy:  6.789909;  8.000000 electrons
         Band energy:   7.765200;  BLOECHL correction: -0.010922
       DOS:  cpu time    0.0380: real time    0.0424
    --------------------------------------------
      LOOP:  cpu time    3.2285: real time    3.2769

 eigenvalue-minimisations  :  3744
 total energy-change (2. order) :-0.5607811E+01  (-0.3099374E+03)
 number of electron       8.0000000 magnetization       1.2000000
 augmentation part        8.0000000 magnetization       1.2000000

 Free energy of the ion-electron system (eV)
  ---------------------------------------------------
  alpha Z        PSCENC =         3.36254244
  Ewald energy   TEWEN  =      -228.52729335
  -Hartree energ DENC   =       -11.00822102
  -exchange      EXHF   =         0.00000000
  -V(xc)+E(xc)   XCENC  =       -18.52396975
  PAW double counting   =        65.91709927      -30.72587073
  entropy T*S    EENTRO =         0.00000000
  eigenvalues    EBANDS =         7.76519986
  atomic energy  EATOM  =       206.13270273
  Solvation  Ediel_sol  =         0.00000000
  ---------------------------------------------------
  free energy    TOTEN  =        -5.60781055 eV

  energy without entropy =       -5.60781055  energy(sigma->0) =       -5.60781055


--------------------------------------------------------------------------------------------------------




----------------------------------------- Iteration    1(   2)  ---------------------------------------


     EDDAV:  cpu time    4.3993: real time    4.4025
 BZINTS: Fermi energy:  5.767839;  8.000000 electrons
         Band energy:   2.546013;  BLOECHL correction:  0.000000
       DOS:  cpu time    0.0100: real time    0.0108
    --------------------------------------------
      LOOP:  cpu time    4.4113: real time    4.4158

 eigenvalue-minimisations  :  5632
 total energy-change (2. order) :-0.5219187E+01  (-0.5216136E+01)
 number of electron       8.0000000 magnetization       1.2000000
 augmentation part        8.0000000 magnetization       1.2000000

 Free energy of the ion-electron system (eV)
  ---------------------------------------------------
  alpha Z        PSCENC =         3.36254244
  Ewald energy   TEWEN  =      -228.52729335
  -Hartree energ DENC   =       -11.00822102
  -exchange      EXHF   =         0.00000000
  -V(xc)+E(xc)   XCENC  =       -18.52396975
  PAW double counting   =        65.91709927      -30.72587073
  entropy T*S    EENTRO =         0.00000000
  eigenvalues    EBANDS =         2.54601253
  atomic energy  EATOM  =       206.13270273
  Solvation  Ediel_sol  =         0.00000000
  ---------------------------------------------------
  free energy    TOTEN  =       -10.82699787 eV

  energy without entropy =      -10.82699787  energy(sigma->0) =      -10.82699787


--------------------------------------------------------------------------------------------------------




----------------------------------------- Iteration    1(   3)  ---------------------------------------


     EDDAV:  cpu time    2.9006: real time    2.9036
 BZINTS: Fermi energy:  5.697273;  8.000000 electrons
         Band energy:   2.537415;  BLOECHL correction:  0.000000
       DOS:  cpu time    0.0100: real time    0.0097
    --------------------------------------------
      LOOP:  cpu time    2.9136: real time    2.9155

 eigenvalue-minimisations  :  3712
 total energy-change (2. order) :-0.8597172E-02  (-0.8597172E-02)
 number of electron       8.0000000 magnetization       1.2000000
 augmentation part        8.0000000 magnetization       1.2000000

 Free energy of the ion-electron system (eV)
  ---------------------------------------------------
  alpha Z        PSCENC =         3.36254244
  Ewald energy   TEWEN  =      -228.52729335
  -Hartree energ DENC   =       -11.00822102
  -exchange      EXHF   =         0.00000000
  -V(xc)+E(xc)   XCENC  =       -18.52396975
  PAW double counting   =        65.91709927      -30.72587073
  entropy T*S    EENTRO =         0.00000000
  eigenvalues    EBANDS =         2.53741536
  atomic energy  EATOM  =       206.13270273
  Solvation  Ediel_sol  =         0.00000000
  ---------------------------------------------------
  free energy    TOTEN  =       -10.83559505 eV

  energy without entropy =      -10.83559505  energy(sigma->0) =      -10.83559505


--------------------------------------------------------------------------------------------------------




----------------------------------------- Iteration    1(   4)  ---------------------------------------


     EDDAV:  cpu time    5.9511: real time    5.9587
 BZINTS: Fermi energy:  5.683472;  8.000000 electrons
         Band energy:   2.537408;  BLOECHL correction:  0.000000
       DOS:  cpu time    0.0080: real time    0.0096
    --------------------------------------------
      LOOP:  cpu time    5.9601: real time    5.9695

 eigenvalue-minimisations  :  7168
 total energy-change (2. order) :-0.7128452E-05  (-0.7128452E-05)
 number of electron       8.0000000 magnetization       1.2000000
 augmentation part        8.0000000 magnetization       1.2000000

 Free energy of the ion-electron system (eV)
  ---------------------------------------------------
  alpha Z        PSCENC =         3.36254244
  Ewald energy   TEWEN  =      -228.52729335
  -Hartree energ DENC   =       -11.00822102
  -exchange      EXHF   =         0.00000000
  -V(xc)+E(xc)   XCENC  =       -18.52396975
  PAW double counting   =        65.91709927      -30.72587073
  entropy T*S    EENTRO =         0.00000000
  eigenvalues    EBANDS =         2.53740823
  atomic energy  EATOM  =       206.13270273
  Solvation  Ediel_sol  =         0.00000000
  ---------------------------------------------------
  free energy    TOTEN  =       -10.83560217 eV

  energy without entropy =      -10.83560217  energy(sigma->0) =      -10.83560217


--------------------------------------------------------------------------------------------------------




----------------------------------------- Iteration    1(   5)  ---------------------------------------


     EDDAV:  cpu time    2.8976: real time    2.9013
 BZINTS: Fermi energy:  5.681758;  8.000000 electrons
         Band energy:   2.537408;  BLOECHL correction:  0.000000
       DOS:  cpu time    0.0100: real time    0.0097
    CHARGE:  cpu time    0.0610: real time    0.0733
    MIXING:  cpu time    0.0050: real time    0.0074
    --------------------------------------------
      LOOP:  cpu time    2.9755: real time    2.9932

 eigenvalue-minimisations  :  3712
 total energy-change (2. order) :-0.3007017E-10  (-0.3015831E-10)
 number of electron       8.0000000 magnetization      -0.3371895
 augmentation part       -0.4710690 magnetization      -0.3337688

 Broyden mixing:
  rms(total) = 0.37339E+00    rms(broyden)= 0.37339E+00
  rms(prec ) = 0.90203E+00
  weight for this iteration     100.00

 Free energy of the ion-electron system (eV)
  ---------------------------------------------------
  alpha Z        PSCENC =         3.36254244
  Ewald energy   TEWEN  =      -228.52729335
  -Hartree energ DENC   =       -11.00822102
  -exchange      EXHF   =         0.00000000
  -V(xc)+E(xc)   XCENC  =       -18.52396975
  PAW double counting   =        65.91709927      -30.72587073
  entropy T*S    EENTRO =         0.00000000
  eigenvalues    EBANDS =         2.53740823
  atomic energy  EATOM  =       206.13270273
  Solvation  Ediel_sol  =         0.00000000
  ---------------------------------------------------
  free energy    TOTEN  =       -10.83560217 eV

  energy without entropy =      -10.83560217  energy(sigma->0) =      -10.83560217


--------------------------------------------------------------------------------------------------------




----------------------------------------- Iteration    1(   6)  ---------------------------------------


    POTLOK:  cpu time    0.1310: real time    0.1303
    SETDIJ:  cpu time    0.0050: real time    0.0057
    EDDIAG:  cpu time    0.4869: real time    0.5071
  RMM-DIIS:  cpu time    0.2550: real time    0.2591
    ORTHCH:  cpu time    0.2990: real time    0.2991
 BZINTS: Fermi energy:  5.575698;  8.000000 electrons
         Band energy:   3.940683;  BLOECHL correction:  0.000000
       DOS:  cpu time    0.0100: real time    0.0104
    CHARGE:  cpu time    0.0570: real time    0.0565
    MIXING:  cpu time    0.0020: real time    0.0037
    --------------------------------------------
      LOOP:  cpu time    1.2458: real time    1.2726

 eigenvalue-minimisations  :  3712
 total energy-change (2. order) :-0.4976281E-01  (-0.2242692E-02)
 number of electron       8.0000000 magnetization       0.4324256
 augmentation part       -0.4645461 magnetization       0.4318994

 Broyden mixing:
  rms(total) = 0.18992E+00    rms(broyden)= 0.18992E+00
  rms(prec ) = 0.51781E+00
  weight for this iteration     100.00

 eigenvalues of (default mixing * dielectric matrix)
  average eigenvalue GAMMA=   0.8555
  0.8555

 Free energy of the ion-electron system (eV)
  ---------------------------------------------------
  alpha Z        PSCENC =         3.36254244
  Ewald energy   TEWEN  =      -228.52729335
  -Hartree energ DENC   =       -12.51123917
  -exchange      EXHF   =         0.00000000
  -V(xc)+E(xc)   XCENC  =       -18.36014217
  PAW double counting   =        69.94227795      -34.86489684
  entropy T*S    EENTRO =         0.00000000
  eigenvalues    EBANDS =         3.94068343
  atomic energy  EATOM  =       206.13270273
  Solvation  Ediel_sol  =         0.00000000
  ---------------------------------------------------
  free energy    TOTEN  =       -10.88536499 eV

  energy without entropy =      -10.88536499  energy(sigma->0) =      -10.88536499


--------------------------------------------------------------------------------------------------------




----------------------------------------- Iteration    1(   7)  ---------------------------------------


    POTLOK:  cpu time    0.1310: real time    0.1320
    SETDIJ:  cpu time    0.0060: real time    0.0058
    EDDIAG:  cpu time    0.4729: real time    0.4727
  RMM-DIIS:  cpu time    0.2690: real time    0.2695
    ORTHCH:  cpu time    0.3010: real time    0.3007
 BZINTS: Fermi energy:  5.914470;  8.000000 electrons
         Band energy:   5.549651;  BLOECHL correction:  0.000000
       DOS:  cpu time    0.0100: real time    0.0112
    CHARGE:  cpu time    0.0570: real time    0.0567
    MIXING:  cpu time    0.0020: real time    0.0017
    --------------------------------------------
      LOOP:  cpu time    1.2498: real time    1.2514

 eigenvalue-minimisations  :  3712
 total energy-change (2. order) : 0.6070215E-01  (-0.2013093E-02)
 number of electron       8.0000000 magnetization       0.0096489
 augmentation part       -0.4594548 magnetization       0.0103344

 Broyden mixing:
  rms(total) = 0.10261E+00    rms(broyden)= 0.10261E+00
  rms(prec ) = 0.16747E+00
  weight for this iteration     100.00

 eigenvalues of (default mixing * dielectric matrix)
  average eigenvalue GAMMA=   1.5050
  0.7636  2.2465

 Free energy of the ion-electron system (eV)
  ---------------------------------------------------
  alpha Z        PSCENC =         3.36254244
  Ewald energy   TEWEN  =      -228.52729335
  -Hartree energ DENC   =       -14.24944733
  -exchange      EXHF   =         0.00000000
  -V(xc)+E(xc)   XCENC  =       -18.07199090
  PAW double counting   =        73.79169938      -38.81252721
  entropy T*S    EENTRO =         0.00000000
  eigenvalues    EBANDS =         5.54965140
  atomic energy  EATOM  =       206.13270273
  Solvation  Ediel_sol  =         0.00000000
  ---------------------------------------------------
  free energy    TOTEN  =       -10.82466283 eV

  energy without entropy =      -10.82466283  energy(sigma->0) =      -10.82466283


--------------------------------------------------------------------------------------------------------




----------------------------------------- Iteration    1(   8)  ---------------------------------------


    POTLOK:  cpu time    0.1310: real time    0.1311
    SETDIJ:  cpu time    0.0060: real time    0.0060
    EDDIAG:  cpu time    0.4699: real time    0.4705
  RMM-DIIS:  cpu time    0.2690: real time    0.2696
    ORTHCH:  cpu time    0.3020: real time    0.3021
 BZINTS: Fermi energy:  5.849139;  8.000000 electrons
         Band energy:   6.125740;  BLOECHL correction:  0.000000
       DOS:  cpu time    0.0100: real time    0.0102
    CHARGE:  cpu time    0.0570: real time    0.0561
    MIXING:  cpu time    0.0010: real time    0.0020
    --------------------------------------------
      LOOP:  cpu time    1.2468: real time    1.2484

 eigenvalue-minimisations  :  3712
 total energy-change (2. order) :-0.1761684E-01  (-0.6414101E-03)
 number of electron       8.0000000 magnetization      -0.0094569
 augmentation part       -0.4579534 magnetization      -0.0094307

 Broyden mixing:
  rms(total) = 0.17483E-01    rms(broyden)= 0.17483E-01
  rms(prec ) = 0.31511E-01
  weight for this iteration     100.00

 eigenvalues of (default mixing * dielectric matrix)
  average eigenvalue GAMMA=   1.2907
  2.4321  0.7859  0.6542

 Free energy of the ion-electron system (eV)
  ---------------------------------------------------
  alpha Z        PSCENC =         3.36254244
  Ewald energy   TEWEN  =      -228.52729335
  -Hartree energ DENC   =       -14.90562847
  -exchange      EXHF   =         0.00000000
  -V(xc)+E(xc)   XCENC  =       -17.97555398
  PAW double counting   =        74.91558913      -39.97037830
  entropy T*S    EENTRO =         0.00000000
  eigenvalues    EBANDS =         6.12574013
  atomic energy  EATOM  =       206.13270273
  Solvation  Ediel_sol  =         0.00000000
  ---------------------------------------------------
  free energy    TOTEN  =       -10.84227967 eV

  energy without entropy =      -10.84227967  energy(sigma->0) =      -10.84227967


--------------------------------------------------------------------------------------------------------




----------------------------------------- Iteration    1(   9)  ---------------------------------------


    POTLOK:  cpu time    0.1310: real time    0.1311
    SETDIJ:  cpu time    0.0060: real time    0.0058
    EDDIAG:  cpu time    0.4719: real time    0.4723
  RMM-DIIS:  cpu time    0.2700: real time    0.2693
    ORTHCH:  cpu time    0.2980: real time    0.2994
 BZINTS: Fermi energy:  5.850864;  8.000000 electrons
         Band energy:   6.119486;  BLOECHL correction:  0.000000
       DOS:  cpu time    0.0100: real time    0.0104
    CHARGE:  cpu time    0.0580: real time    0.0588
    MIXING:  cpu time    0.0010: real time    0.0019
    --------------------------------------------
      LOOP:  cpu time    1.2468: real time    1.2500

 eigenvalue-minimisations  :  3690
 total energy-change (2. order) : 0.3882453E-03  (-0.2598788E-04)
 number of electron       8.0000000 magnetization      -0.0002473
 augmentation part       -0.4582746 magnetization      -0.0001488

 Broyden mixing:
  rms(total) = 0.97141E-02    rms(broyden)= 0.97141E-02
  rms(prec ) = 0.18776E-01
  weight for this iteration     100.00

 eigenvalues of (default mixing * dielectric matrix)
  average eigenvalue GAMMA=   1.4779
  2.4738  2.0178  0.7786  0.6415

 Free energy of the ion-electron system (eV)
  ---------------------------------------------------
  alpha Z        PSCENC =         3.36254244
  Ewald energy   TEWEN  =      -228.52729335
  -Hartree energ DENC   =       -14.91052933
  -exchange      EXHF   =         0.00000000
  -V(xc)+E(xc)   XCENC  =       -17.97109424
  PAW double counting   =        74.66992767      -39.71763361
  entropy T*S    EENTRO =         0.00000000
  eigenvalues    EBANDS =         6.11948627
  atomic energy  EATOM  =       206.13270273
  Solvation  Ediel_sol  =         0.00000000
  ---------------------------------------------------
  free energy    TOTEN  =       -10.84189143 eV

  energy without entropy =      -10.84189143  energy(sigma->0) =      -10.84189143


--------------------------------------------------------------------------------------------------------




----------------------------------------- Iteration    1(  10)  ---------------------------------------


    POTLOK:  cpu time    0.1320: real time    0.1319
    SETDIJ:  cpu time    0.0060: real time    0.0060
    EDDIAG:  cpu time    0.4709: real time    0.4718
  RMM-DIIS:  cpu time    0.2680: real time    0.2707
    ORTHCH:  cpu time    0.3050: real time    0.3052
 BZINTS: Fermi energy:  5.854964;  8.000000 electrons
         Band energy:   6.110009;  BLOECHL correction:  0.000000
       DOS:  cpu time    0.0100: real time    0.0104
    --------------------------------------------
      LOOP:  cpu time    1.1928: real time    1.1970

 eigenvalue-minimisations  :  3711
 total energy-change (2. order) : 0.6256431E-04  (-0.2038910E-04)
 number of electron       8.0000000 magnetization      -0.0002473
 augmentation part       -0.4582746 magnetization      -0.0001488

 Free energy of the ion-electron system (eV)
  ---------------------------------------------------
  alpha Z        PSCENC =         3.36254244
  Ewald energy   TEWEN  =      -228.52729335
  -Hartree energ DENC   =       -14.91796170
  -exchange      EXHF   =         0.00000000
  -V(xc)+E(xc)   XCENC  =       -17.96496153
  PAW double counting   =        74.30270070      -39.33956742
  entropy T*S    EENTRO =         0.00000000
  eigenvalues    EBANDS =         6.11000926
  atomic energy  EATOM  =       206.13270273
  Solvation  Ediel_sol  =         0.00000000
  ---------------------------------------------------
  free energy    TOTEN  =       -10.84182886 eV

  energy without entropy =      -10.84182886  energy(sigma->0) =      -10.84182886


--------------------------------------------------------------------------------------------------------




 average (electrostatic) potential at core
  the test charge radii are     0.9892
  (the norm of the test charge is              1.0000)
       1 -83.2526       2 -83.2526
 
 
 
 E-fermi :   5.8550     XC(G=0):  -9.4113     alpha+bet :-11.9788


 spin component 1

 k-point     1 :       0.0000    0.0000    0.0000
  band No.  band energies     occupation 
      1      -6.1339      1.00000
      2       5.8212      1.00000
      3       5.8212      1.00000
      4       5.8212      1.00000
      5       8.3919      0.00000
      6       8.3919      0.00000
      7       8.3919      0.00000
      8       9.1953      0.00000
      9      13.5463      0.00000
     10      13.5463      0.00000
     11      13.7743      0.00000
     12      17.0787      0.00000
     13      17.0788      0.00000
     14      17.0788      0.00000
     15      21.2146      0.00000
     16      28.9260      0.00000
     17      28.9260      0.00000
     18      28.9260      0.00000
     19      30.0305      0.00000
     20      30.0305      0.00000
     21      31.6379      0.00000
     22      31.6380      0.00000
     23      31.6380      0.00000
     24      35.0346      0.00000
     25      35.0346      0.00000
     26      35.0346      0.00000
     27      40.7489      0.00000
     28      40.7489      0.00000
     29      40.7489      0.00000
     30      44.1530      0.00000
     31      44.5680      0.00000
     32      44.5681      0.00000

 k-point     2 :       0.1250    0.0000   -0.0000
  band No.  band energies     occupation 
      1      -5.9298      1.00000
      2       4.2256      1.00000
      3       5.5333      1.00000
      4       5.5333      1.00000
      5       8.3294      0.00000
      6       8.8155      0.00000
      7       8.8155      0.00000
      8      10.5386      0.00000
      9      13.0648      0.00000
     10      13.0648      0.00000
     11      14.5621      0.00000
     12      16.5167      0.00000
     13      18.2421      0.00000
     14      18.2421      0.00000
     15      22.4501      0.00000
     16      26.9030      0.00000
     17      26.9031      0.00000
     18      27.2290      0.00000
     19      29.6847      0.00000
     20      29.6847      0.00000
     21      32.1562      0.00000
     22      32.1562      0.00000
     23      33.0434      0.00000
     24      35.2193      0.00000
     25      37.2264      0.00000
     26      37.2264      0.00000
     27      38.3601      0.00000
     28      40.2218      0.00000
     29      40.2218      0.00000
     30      42.6482      0.00000
     31      42.6484      0.00000
     32      44.5024      0.00000

 k-point     3 :       0.2500    0.0000   -0.0000
  band No.  band energies     occupation 
      1      -5.3343      1.00000
      2       1.8990      1.00000
      3       5.0638      1.00000
      4       5.0638      1.00000
      5       7.8551      0.00000
      6       9.3331      0.00000
      7       9.3331      0.00000
      8      12.7443      0.00000
      9      13.0213      0.00000
     10      13.0213      0.00000
     11      14.8157      0.00000
     12      17.6628      0.00000
     13      20.4698      0.00000
     14      20.4698      0.00000
     15      23.6835      0.00000
     16      23.6835      0.00000
     17      23.8254      0.00000
     18      25.9063      0.00000
     19      29.8628      0.00000
     20      29.8628      0.00000
     21      32.5034      0.00000
     22      32.5034      0.00000
     23      33.7082      0.00000
     24      35.3108      0.00000
     25      35.7370      0.00000
     26      37.6861      0.00000
     27      37.6862      0.00000
     28      39.3664      0.00000
     29      39.3664      0.00000
     30      40.2792      0.00000
     31      40.2794      0.00000
     32      44.0537      0.00000

 k-point     4 :       0.3750    0.0000    0.0000
  band No.  band energies     occupation 
      1      -4.4407      1.00000
      2      -0.1201      1.00000
      3       4.7373      1.00000
      4       4.7373      1.00000
      5       7.4912      0.00000
      6       9.2781      0.00000
      7       9.2781      0.00000
      8      13.7046      0.00000
      9      14.4073      0.00000
     10      14.4073      0.00000
     11      15.5111      0.00000
     12      19.5829      0.00000
     13      19.5829      0.00000
     14      19.9185      0.00000
     15      22.4981      0.00000
     16      24.3707      0.00000
     17      24.3707      0.00000
     18      28.8166      0.00000
     19      29.6992      0.00000
     20      29.6992      0.00000
     21      29.7068      0.00000
     22      32.6527      0.00000
     23      32.6527      0.00000
     24      34.1941      0.00000
     25      34.1941      0.00000
     26      35.7075      0.00000
     27      36.4236      0.00000
     28      38.4536      0.00000
     29      38.4536      0.00000
     30      39.4034      0.00000
     31      39.4034      0.00000
     32      40.5776      0.00000

 k-point     5 :       0.5000    0.0000   -0.0000
  band No.  band energies     occupation 
      1      -3.8031      1.00000
      2      -1.1421      1.00000
      3       4.6257      1.00000
      4       4.6257      1.00000
      5       7.3631      0.00000
      6       9.1669      0.00000
      7       9.1669      0.00000
      8      13.5490      0.00000
      9      16.3740      0.00000
     10      16.3740      0.00000
     11      17.1686      0.00000
     12      17.1686      0.00000
     13      17.1729      0.00000
     14      18.8515      0.00000
     15      25.2059      0.00000
     16      25.8029      0.00000
     17      27.4770      0.00000
     18      27.4771      0.00000
     19      27.6434      0.00000
     20      27.6434      0.00000
     21      31.5302      0.00000
     22      32.2506      0.00000
     23      32.2506      0.00000
     24      33.3124      0.00000
     25      33.3124      0.00000
     26      34.1763      0.00000
     27      36.8029      0.00000
     28      38.2490      0.00000
     29      38.2490      0.00000
     30      38.7412      0.00000
     31      38.7412      0.00000
     32      39.7615      0.00000

 k-point     6 :       0.0000    0.1250    0.0000
  band No.  band energies     occupation 
      1      -5.8610      1.00000
      2       4.4897      1.00000
      3       5.0170      1.00000
      4       5.0170      1.00000
      5       7.8390      0.00000
      6       9.5300      0.00000
      7       9.5300      0.00000
      8      10.2258      0.00000
      9      12.3331      0.00000
     10      13.8488      0.00000
     11      14.8625      0.00000
     12      17.5514      0.00000
     13      17.5514      0.00000
     14      18.0333      0.00000
     15      23.0382      0.00000
     16      26.4311      0.00000
     17      26.4311      0.00000
     18      27.6465      0.00000
     19      28.5120      0.00000
     20      29.2888      0.00000
     21      32.3640      0.00000
     22      32.7341      0.00000
     23      32.7341      0.00000
     24      37.0241      0.00000
     25      37.0241      0.00000
     26      37.5402      0.00000
     27      38.9911      0.00000
     28      38.9911      0.00000
     29      39.0801      0.00000
     30      41.2807      0.00000
     31      42.9778      0.00000
     32      43.9651      0.00000

 k-point     7 :       0.2500    0.1250    0.0000
  band No.  band energies     occupation 
      1      -5.5936      1.00000
      2       3.1412      1.00000
      3       4.1967      1.00000
      4       5.5294      1.00000
      5       8.8713      0.00000
      6       8.9526      0.00000
      7       9.1825      0.00000
      8      11.3760      0.00000
      9      12.1683      0.00000
     10      13.8582      0.00000
     11      15.5808      0.00000
     12      17.0059      0.00000
     13      18.1936      0.00000
     14      20.3071      0.00000
     15      23.5407      0.00000
     16      23.9632      0.00000
     17      26.8066      0.00000
     18      26.9831      0.00000
     19      27.5551      0.00000
     20      28.8869      0.00000
     21      32.3774      0.00000
     22      32.6068      0.00000
     23      34.6332      0.00000
     24      36.2994      0.00000
     25      36.5425      0.00000
     26      37.9228      0.00000
     27      38.0759      0.00000
     28      39.6098      0.00000
     29      39.7177      0.00000
     30      40.2682      0.00000
     31      41.8021      0.00000
     32      41.8077      0.00000

 k-point     8 :       0.3750    0.1250    0.0000
  band No.  band energies     occupation 
      1      -4.8838      1.00000
      2       1.2008      1.00000
      3       3.5151      1.00000
      4       5.0496      1.00000
      5       8.5459      0.00000
      6       9.5051      0.00000
      7       9.6801      0.00000
      8      12.1236      0.00000
      9      12.2984      0.00000
     10      15.6676      0.00000
     11      15.9018      0.00000
     12      18.2566      0.00000
     13      19.8125      0.00000
     14      21.2656      0.00000
     15      22.2176      0.00000
     16      23.8800      0.00000
     17      24.6677      0.00000
     18      27.5910      0.00000
     19      27.8101      0.00000
     20      28.7471      0.00000
     21      31.8997      0.00000
     22      32.3949      0.00000
     23      33.2216      0.00000
     24      35.3291      0.00000
     25      35.5328      0.00000
     26      36.8193      0.00000
     27      36.9493      0.00000
     28      38.0429      0.00000
     29      39.0128      0.00000
     30      40.1050      0.00000
     31      40.4114      0.00000
     32      42.9430      0.00000

 k-point     9 :       0.5000    0.1250   -0.0000
  band No.  band energies     occupation 
      1      -3.9609      1.00000
      2      -0.5504      1.00000
      3       3.3643      1.00000
      4       4.5589      1.00000
      5       8.1865      0.00000
      6       9.4477      0.00000
      7       9.6955      0.00000
      8      13.7404      0.00000
      9      13.9211      0.00000
     10      15.0344      0.00000
     11      17.0131      0.00000
     12      18.2733      0.00000
     13      20.0934      0.00000
     14      20.5467      0.00000
     15      22.7081      0.00000
     16      24.4686      0.00000
     17      26.3510      0.00000
     18      28.0019      0.00000
     19      28.2153      0.00000
     20      28.3985      0.00000
     21      30.5528      0.00000
     22      30.9613      0.00000
     23      33.2268      0.00000
     24      33.3695      0.00000
     25      33.7363      0.00000
     26      35.0492      0.00000
     27      36.1508      0.00000
     28      37.1585      0.00000
     29      39.0940      0.00000
     30      39.4142      0.00000
     31      39.4815      0.00000
     32      40.8556      0.00000

 k-point    10 :      -0.3750    0.1250   -0.0000
  band No.  band energies     occupation 
      1      -3.7164      1.00000
      2      -0.9209      1.00000
      3       3.5458      1.00000
      4       4.2629      1.00000
      5       8.0196      0.00000
      6       9.3400      0.00000
      7       9.9269      0.00000
      8      13.1942      0.00000
      9      14.8182      0.00000
     10      16.3072      0.00000
     11      17.3654      0.00000
     12      17.4787      0.00000
     13      18.3611      0.00000
     14      20.8749      0.00000
     15      24.1455      0.00000
     16      25.4832      0.00000
     17      26.1411      0.00000
     18      26.9145      0.00000
     19      27.7668      0.00000
     20      28.1412      0.00000
     21      30.5418      0.00000
     22      31.8387      0.00000
     23      32.2121      0.00000
     24      33.4066      0.00000
     25      33.9436      0.00000
     26      35.5002      0.00000
     27      35.8298      0.00000
     28      36.2266      0.00000
     29      38.6510      0.00000
     30      38.9684      0.00000
     31      39.6602      0.00000
     32      40.8326      0.00000

 k-point    11 :      -0.2500    0.1250    0.0000
  band No.  band energies     occupation 
      1      -4.5776      1.00000
      2       0.5418      1.00000
      3       3.9910      1.00000
      4       4.2385      1.00000
      5       8.0725      0.00000
      6       9.4684      0.00000
      7      10.2903      0.00000
      8      11.2915      0.00000
      9      15.1458      0.00000
     10      15.1771      0.00000
     11      15.7779      0.00000
     12      19.2281      0.00000
     13      19.2869      0.00000
     14      21.0234      0.00000
     15      22.5071      0.00000
     16      23.4830      0.00000
     17      24.4398      0.00000
     18      27.7074      0.00000
     19      28.4406      0.00000
     20      29.4203      0.00000
     21      30.6047      0.00000
     22      31.4010      0.00000
     23      33.3646      0.00000
     24      34.9092      0.00000
     25      36.0009      0.00000
     26      36.1405      0.00000
     27      36.3746      0.00000
     28      37.5635      0.00000
     29      38.5517      0.00000
     30      39.0924      0.00000
     31      40.7088      0.00000
     32      42.1054      0.00000

 k-point    12 :      -0.1250    0.1250   -0.0000
  band No.  band energies     occupation 
      1      -5.3924      1.00000
      2       2.6013      1.00000
      3       4.5062      1.00000
      4       4.5819      1.00000
      5       7.9738      0.00000
      6       9.5360      0.00000
      7      10.2938      0.00000
      8      10.5749      0.00000
      9      13.3315      0.00000
     10      14.0152      0.00000
     11      15.8487      0.00000
     12      17.4141      0.00000
     13      18.9679      0.00000
     14      20.2324      0.00000
     15      23.4211      0.00000
     16      23.9214      0.00000
     17      25.0890      0.00000
     18      27.3889      0.00000
     19      27.4169      0.00000
     20      28.8752      0.00000
     21      32.1035      0.00000
     22      33.1111      0.00000
     23      34.1049      0.00000
     24      35.7009      0.00000
     25      37.2873      0.00000
     26      37.5861      0.00000
     27      37.9534      0.00000
     28      38.7894      0.00000
     29      39.3606      0.00000
     30      40.0497      0.00000
     31      41.6350      0.00000
     32      41.6635      0.00000

 k-point    13 :       0.0000    0.2500    0.0000
  band No.  band energies     occupation 
      1      -5.0520      1.00000
      2       2.3080      1.00000
      3       3.9358      1.00000
      4       3.9358      1.00000
      5       6.9560      0.00000
      6       8.9584      0.00000
      7      11.5818      0.00000
      8      11.5818      0.00000
      9      13.8910      0.00000
     10      14.7549      0.00000
     11      17.2550      0.00000
     12      18.8410      0.00000
     13      18.8410      0.00000
     14      19.5441      0.00000
     15      23.2435      0.00000
     16      23.2435      0.00000
     17      24.1637      0.00000
     18      26.2064      0.00000
     19      26.7765      0.00000
     20      30.7435      0.00000
     21      32.1353      0.00000
     22      33.1619      0.00000
     23      33.1619      0.00000
     24      35.3400      0.00000
     25      35.3400      0.00000
     26      35.4912      0.00000
     27      36.1985      0.00000
     28      40.5390      0.00000
     29      41.0171      0.00000
     30      41.2220      0.00000
     31      41.2221      0.00000
     32      42.9182      0.00000

 k-point    14 :       0.5000    0.2500    0.0000
  band No.  band energies     occupation 
      1      -4.0904      1.00000
      2       0.3460      1.00000
      3       2.0746      1.00000
      4       4.4969      1.00000
      5       8.2762      0.00000
      6      10.6177      0.00000
      7      10.9525      0.00000
      8      11.9742      0.00000
      9      12.2704      0.00000
     10      15.4625      0.00000
     11      18.4422      0.00000
     12      19.0217      0.00000
     13      19.2843      0.00000
     14      22.4992      0.00000
     15      22.8747      0.00000
     16      23.2812      0.00000
     17      24.5311      0.00000
     18      27.0754      0.00000
     19      27.5201      0.00000
     20      29.7619      0.00000
     21      30.6353      0.00000
     22      31.1092      0.00000
     23      32.6466      0.00000
     24      32.9313      0.00000
     25      33.6308      0.00000
     26      35.1661      0.00000
     27      36.1603      0.00000
     28      37.0468      0.00000
     29      39.9621      0.00000
     30      40.1369      0.00000
     31      41.9478      0.00000
     32      42.8403      0.00000

 k-point    15 :      -0.3750    0.2500    0.0000
  band No.  band energies     occupation 
      1      -3.2122      1.00000
      2      -0.8143      1.00000
      3       1.8345      1.00000
      4       3.9392      1.00000
      5       7.6699      0.00000
      6      11.2861      0.00000
      7      11.3067      0.00000
      8      12.7849      0.00000
      9      13.8061      0.00000
     10      13.8440      0.00000
     11      18.3995      0.00000
     12      20.6512      0.00000
     13      20.9683      0.00000
     14      21.8444      0.00000
     15      22.2879      0.00000
     16      24.2177      0.00000
     17      25.2718      0.00000
     18      25.7979      0.00000
     19      27.6511      0.00000
     20      27.9283      0.00000
     21      30.5471      0.00000
     22      31.2132      0.00000
     23      31.6430      0.00000
     24      32.1784      0.00000
     25      33.7522      0.00000
     26      34.5200      0.00000
     27      35.1716      0.00000
     28      35.9319      0.00000
     29      39.2958      0.00000
     30      39.9741      0.00000
     31      41.6504      0.00000
     32      41.8951      0.00000

 k-point    16 :      -0.2500    0.2500   -0.0000
  band No.  band energies     occupation 
      1      -3.4163      1.00000
      2      -0.5560      1.00000
      3       2.2927      1.00000
      4       3.6212      1.00000
      5       7.3452      0.00000
      6      10.2710      0.00000
      7      11.5708      0.00000
      8      11.7446      0.00000
      9      16.0362      0.00000
     10      16.3624      0.00000
     11      17.9841      0.00000
     12      18.5324      0.00000
     13      18.8628      0.00000
     14      22.6625      0.00000
     15      23.5555      0.00000
     16      24.4538      0.00000
     17      25.1881      0.00000
     18      25.4306      0.00000
     19      25.7614      0.00000
     20      28.7392      0.00000
     21      29.5768      0.00000
     22      31.0280      0.00000
     23      31.4211      0.00000
     24      33.6576      0.00000
     25      34.9326      0.00000
     26      35.1453      0.00000
     27      35.2246      0.00000
     28      37.0124      0.00000
     29      37.9499      0.00000
     30      40.1701      0.00000
     31      41.3371      0.00000
     32      41.9966      0.00000

 k-point    17 :      -0.1250    0.2500    0.0000
  band No.  band energies     occupation 
      1      -4.3421      1.00000
      2       0.8852      1.00000
      3       3.1558      1.00000
      4       3.6181      1.00000
      5       7.1760      0.00000
      6       8.7193      0.00000
      7      11.8226      0.00000
      8      12.0937      0.00000
      9      15.8046      0.00000
     10      16.0104      0.00000
     11      17.4869      0.00000
     12      19.0367      0.00000
     13      19.5878      0.00000
     14      20.6564      0.00000
     15      21.7196      0.00000
     16      22.9404      0.00000
     17      24.2269      0.00000
     18      25.7319      0.00000
     19      27.7089      0.00000
     20      29.9971      0.00000
     21      31.0329      0.00000
     22      32.1744      0.00000
     23      32.2760      0.00000
     24      33.2587      0.00000
     25      34.7611      0.00000
     26      35.0701      0.00000
     27      36.3217      0.00000
     28      39.1381      0.00000
     29      39.1910      0.00000
     30      41.0881      0.00000
     31      42.4080      0.00000
     32      42.7110      0.00000

 k-point    18 :       0.0000    0.3750   -0.0000
  band No.  band energies     occupation 
      1      -3.7397      1.00000
      2       0.0809      1.00000
      3       3.2202      1.00000
      4       3.2202      1.00000
      5       6.4402      0.00000
      6       7.3645      0.00000
      7      13.8654      0.00000
      8      13.8654      0.00000
      9      16.2588      0.00000
     10      16.5528      0.00000
     11      18.8402      0.00000
     12      18.8402      0.00000
     13      19.4785      0.00000
     14      21.0023      0.00000
     15      21.7823      0.00000
     16      22.6745      0.00000
     17      22.6745      0.00000
     18      24.6703      0.00000
     19      29.2603      0.00000
     20      29.4374      0.00000
     21      29.9160      0.00000
     22      29.9160      0.00000
     23      31.2614      0.00000
     24      33.0159      0.00000
     25      34.8584      0.00000
     26      34.8884      0.00000
     27      34.8884      0.00000
     28      40.9414      0.00000
     29      40.9414      0.00000
     30      41.0718      0.00000
     31      41.4490      0.00000
     32      42.1015      0.00000

 k-point    19 :      -0.2500    0.3750    0.0000
  band No.  band energies     occupation 
      1      -2.4040      1.00000
      2      -1.4002      1.00000
      3       1.5259      1.00000
      4       3.4014      1.00000
      5       7.0289      0.00000
      6       9.9517      0.00000
      7      13.2971      0.00000
      8      13.8343      0.00000
      9      14.0640      0.00000
     10      14.3310      0.00000
     11      20.5672      0.00000
     12      20.7118      0.00000
     13      21.2997      0.00000
     14      21.5119      0.00000
     15      21.7262      0.00000
     16      22.9014      0.00000
     17      25.4632      0.00000
     18      25.7774      0.00000
     19      27.3404      0.00000
     20      27.4697      0.00000
     21      28.7325      0.00000
     22      28.8404      0.00000
     23      30.9887      0.00000
     24      31.7590      0.00000
     25      34.7999      0.00000
     26      35.2629      0.00000
     27      35.4559      0.00000
     28      36.9414      0.00000
     29      40.6175      0.00000
     30      40.6732      0.00000
     31      40.8992      0.00000
     32      41.1407      0.00000

 k-point    20 :      -0.1250    0.3750    0.0000
  band No.  band energies     occupation 
      1      -2.8426      1.00000
      2      -1.0038      1.00000
      3       2.3916      1.00000
      4       3.1441      1.00000
      5       6.7193      0.00000
      6       7.7916      0.00000
      7      14.0914      0.00000
      8      14.1792      0.00000
      9      16.5878      0.00000
     10      16.6313      0.00000
     11      18.1378      0.00000
     12      18.7071      0.00000
     13      20.7646      0.00000
     14      20.7760      0.00000
     15      21.7613      0.00000
     16      24.5323      0.00000
     17      24.6369      0.00000
     18      25.2509      0.00000
     19      26.6258      0.00000
     20      28.1337      0.00000
     21      28.5964      0.00000
     22      29.3183      0.00000
     23      29.9347      0.00000
     24      31.6759      0.00000
     25      35.1867      0.00000
     26      35.9125      0.00000
     27      37.7479      0.00000
     28      38.7447      0.00000
     29      38.7910      0.00000
     30      40.3946      0.00000
     31      41.4226      0.00000
     32      42.6727      0.00000

 k-point    21 :       0.0000    0.5000    0.0000
  band No.  band energies     occupation 
      1      -1.9902      1.00000
      2      -1.9902      1.00000
      3       2.9748      1.00000
      4       2.9748      1.00000
      5       6.5345      0.00000
      6       6.5345      0.00000
      7      15.9404      0.00000
      8      15.9404      0.00000
      9      16.7956      0.00000
     10      16.7956      0.00000
     11      18.3491      0.00000
     12      18.3491      0.00000
     13      18.8804      0.00000
     14      18.8804      0.00000
     15      24.6693      0.00000
     16      24.6693      0.00000
     17      25.5802      0.00000
     18      25.5802      0.00000
     19      26.0396      0.00000
     20      26.0396      0.00000
     21      27.3608      0.00000
     22      27.3608      0.00000
     23      31.3090      0.00000
     24      31.3090      0.00000
     25      35.3023      0.00000
     26      35.3023      0.00000
     27      40.0509      0.00000
     28      40.0509      0.00000
     29      40.1579      0.00000
     30      40.1579      0.00000
     31      41.6650      0.00000
     32      41.6650      0.00000

 k-point    22 :       0.3750    0.1250    0.1250
  band No.  band energies     occupation 
      1      -4.8046      1.00000
      2       1.5363      1.00000
      3       3.1134      1.00000
      4       4.3972      1.00000
      5       8.2728      0.00000
      6       9.7303      0.00000
      7      10.0173      0.00000
      8      11.3260      0.00000
      9      13.6152      0.00000
     10      16.0793      0.00000
     11      16.9111      0.00000
     12      17.9335      0.00000
     13      19.6961      0.00000
     14      20.9119      0.00000
     15      21.6890      0.00000
     16      24.0461      0.00000
     17      25.1555      0.00000
     18      26.3642      0.00000
     19      27.5529      0.00000
     20      29.2714      0.00000
     21      31.1115      0.00000
     22      31.9020      0.00000
     23      33.7171      0.00000
     24      34.6802      0.00000
     25      35.4514      0.00000
     26      37.3536      0.00000
     27      37.5171      0.00000
     28      37.7599      0.00000
     29      39.7206      0.00000
     30      39.8039      0.00000
     31      41.3234      0.00000
     32      41.3924      0.00000

 k-point    23 :       0.5000    0.1250    0.1250
  band No.  band energies     occupation 
      1      -3.9165      1.00000
      2      -0.0149      1.00000
      3       2.5057      1.00000
      4       3.8964      1.00000
      5       8.7024      0.00000
      6       9.3793      0.00000
      7      10.8443      0.00000
      8      11.7602      0.00000
      9      14.8459      0.00000
     10      15.5574      0.00000
     11      17.8228      0.00000
     12      18.7635      0.00000
     13      20.0630      0.00000
     14      20.9629      0.00000
     15      23.0924      0.00000
     16      24.0708      0.00000
     17      24.8345      0.00000
     18      26.8163      0.00000
     19      27.6649      0.00000
     20      28.6414      0.00000
     21      30.0918      0.00000
     22      31.5505      0.00000
     23      31.8685      0.00000
     24      33.0809      0.00000
     25      34.6280      0.00000
     26      35.4621      0.00000
     27      37.0495      0.00000
     28      37.1866      0.00000
     29      38.2808      0.00000
     30      39.0404      0.00000
     31      40.8044      0.00000
     32      41.7662      0.00000

 k-point    24 :      -0.3750    0.1250    0.1250
  band No.  band energies     occupation 
      1      -3.2644      1.00000
      2      -0.9594      1.00000
      3       2.3768      1.00000
      4       3.6670      1.00000
      5       8.8932      0.00000
      6       8.9561      0.00000
      7      11.7362      0.00000
      8      12.9396      0.00000
      9      13.2226      0.00000
     10      16.4059      0.00000
     11      17.5236      0.00000
     12      18.2278      0.00000
     13      21.3715      0.00000
     14      21.3934      0.00000
     15      23.9430      0.00000
     16      24.2831      0.00000
     17      25.3066      0.00000
     18      26.6535      0.00000
     19      26.7931      0.00000
     20      27.8442      0.00000
     21      30.8308      0.00000
     22      31.2062      0.00000
     23      31.2962      0.00000
     24      32.1387      0.00000
     25      34.1550      0.00000
     26      35.5337      0.00000
     27      35.8146      0.00000
     28      36.9289      0.00000
     29      37.7574      0.00000
     30      38.2919      0.00000
     31      40.5498      0.00000
     32      41.1595      0.00000

 k-point    25 :      -0.3750    0.2500    0.1250
  band No.  band energies     occupation 
      1      -3.0172      1.00000
      2      -0.7425      1.00000
      3       1.6003      1.00000
      4       3.2425      1.00000
      5       8.6928      0.00000
      6      10.3679      0.00000
      7      11.0399      0.00000
[...]
     11      18.0546      0.00000
     12      18.0546      0.00000
     13      18.4126      0.00000
     14      18.4126      0.00000
     15      24.2877      0.00000
     16      24.2877      0.00000
     17      25.1666      0.00000
     18      25.1666      0.00000
     19      25.6193      0.00000
     20      25.6193      0.00000
     21      26.8672      0.00000
     22      26.8672      0.00000
     23      30.7970      0.00000
     24      30.7970      0.00000
     25      34.6912      0.00000
     26      34.6912      0.00000
     27      39.4030      0.00000
     28      39.4030      0.00000
     29      39.5534      0.00000
     30      39.5534      0.00000
     31      41.0225      0.00000
     32      41.0225      0.00000

 k-point    22 :       0.3750    0.1250    0.1250
  band No.  band energies     occupation 
      1      -4.8940      1.00000
      2       1.3461      1.00000
      3       2.9628      1.00000
      4       4.2142      1.00000
      5       8.0569      0.00000
      6       9.4397      0.00000
      7       9.8169      0.00000
      8      11.0537      0.00000
      9      13.3255      0.00000
     10      15.7169      0.00000
     11      16.5772      0.00000
     12      17.6456      0.00000
     13      19.3536      0.00000
     14      20.5533      0.00000
     15      21.3149      0.00000
     16      23.6267      0.00000
     17      24.7052      0.00000
     18      25.9337      0.00000
     19      27.0495      0.00000
     20      28.8161      0.00000
     21      30.5444      0.00000
     22      31.3827      0.00000
     23      33.1636      0.00000
     24      34.0994      0.00000
     25      34.8559      0.00000
     26      36.7347      0.00000
     27      36.9143      0.00000
     28      37.1802      0.00000
     29      39.1182      0.00000
     30      39.1847      0.00000
     31      40.6854      0.00000
     32      40.7412      0.00000

 k-point    23 :       0.5000    0.1250    0.1250
  band No.  band energies     occupation 
      1      -4.0248      1.00000
      2      -0.1730      1.00000
      3       2.3589      1.00000
      4       3.7270      1.00000
      5       8.4780      0.00000
      6       9.1433      0.00000
      7      10.5910      0.00000
      8      11.4913      0.00000
      9      14.5432      0.00000
     10      15.2392      0.00000
     11      17.5152      0.00000
     12      18.3602      0.00000
     13      19.6836      0.00000
     14      20.6033      0.00000
     15      22.7075      0.00000
     16      23.6102      0.00000
     17      24.3975      0.00000
     18      26.3849      0.00000
     19      27.1913      0.00000
     20      28.1723      0.00000
     21      29.5645      0.00000
     22      31.0540      0.00000
     23      31.3623      0.00000
     24      32.5219      0.00000
     25      34.0770      0.00000
     26      34.8899      0.00000
     27      36.4521      0.00000
     28      36.5931      0.00000
     29      37.6704      0.00000
     30      38.4371      0.00000
     31      40.1491      0.00000
     32      41.1171      0.00000

 k-point    24 :      -0.3750    0.1250    0.1250
  band No.  band energies     occupation 
      1      -3.3909      1.00000
      2      -1.0921      1.00000
      3       2.2275      1.00000
      4       3.5041      1.00000
      5       8.6369      0.00000
      6       8.7604      0.00000
      7      11.4596      0.00000
      8      12.6794      0.00000
      9      12.9197      0.00000
     10      16.1206      0.00000
     11      17.1651      0.00000
     12      17.8867      0.00000
     13      20.8968      0.00000
     14      21.0101      0.00000
     15      23.5250      0.00000
     16      23.8673      0.00000
     17      24.8802      0.00000
     18      26.1967      0.00000
     19      26.3482      0.00000
     20      27.3656      0.00000
     21      30.3335      0.00000
     22      30.7356      0.00000
     23      30.8066      0.00000
     24      31.5707      0.00000
     25      33.6026      0.00000
     26      34.9707      0.00000
     27      35.2320      0.00000
     28      36.3504      0.00000
     29      37.1585      0.00000
     30      37.7112      0.00000
     31      39.8929      0.00000
     32      40.5056      0.00000

 k-point    25 :      -0.3750    0.2500    0.1250
  band No.  band energies     occupation 
      1      -3.1452      1.00000
      2      -0.9033      1.00000
      3       1.4850      1.00000
      4       3.0896      1.00000
      5       8.4784      0.00000
      6      10.1280      0.00000
      7      10.7792      0.00000
      8      12.5760      0.00000
      9      13.3785      0.00000
     10      14.7590      0.00000
     11      19.5482      0.00000
     12      19.7521      0.00000
     13      20.0868      0.00000
     14      21.6926      0.00000
     15      21.9528      0.00000
     16      23.7477      0.00000
     17      24.5627      0.00000
     18      25.3314      0.00000
     19      26.5232      0.00000
     20      27.5025      0.00000
     21      28.6360      0.00000
     22      29.8969      0.00000
     23      31.2134      0.00000
     24      32.6694      0.00000
     25      33.3866      0.00000
     26      34.4692      0.00000
     27      34.5409      0.00000
     28      36.4448      0.00000
     29      36.8015      0.00000
     30      38.0171      0.00000
     31      40.2988      0.00000
     32      42.6793      0.00000

 k-point    26 :      -0.2500    0.2500    0.1250
  band No.  band energies     occupation 
      1      -2.8016      1.00000
      2      -1.2611      1.00000
      3       1.6473      1.00000
      4       2.7231      1.00000
      5       8.0092      0.00000
      6       9.8827      0.00000
      7      10.8255      0.00000
      8      12.9644      0.00000
      9      13.9204      0.00000
     10      16.5723      0.00000
     11      17.6837      0.00000
     12      19.7983      0.00000
     13      20.7974      0.00000
     14      21.3964      0.00000
     15      22.9739      0.00000
     16      23.7949      0.00000
     17      24.0983      0.00000
     18      24.7729      0.00000
     19      26.4786      0.00000
     20      27.1099      0.00000
     21      28.0966      0.00000
     22      29.5331      0.00000
     23      30.3343      0.00000
     24      32.8698      0.00000
     25      33.4566      0.00000
     26      34.2112      0.00000
     27      35.9533      0.00000
     28      36.5920      0.00000
     29      37.2494      0.00000
     30      37.7657      0.00000
     31      39.7481      0.00000
     32      41.6859      0.00000

 k-point    27 :      -0.1250    0.2500    0.1250
  band No.  band energies     occupation 
      1      -3.6549      1.00000
      2      -0.3129      1.00000
      3       2.3272      1.00000
      4       2.9190      1.00000
      5       7.5699      0.00000
      6       8.2729      0.00000
      7      11.2979      0.00000
      8      13.5005      0.00000
      9      15.6676      0.00000
     10      15.7222      0.00000
     11      18.2956      0.00000
     12      18.7998      0.00000
     13      19.6810      0.00000
     14      20.1332      0.00000
     15      22.1070      0.00000
     16      22.5065      0.00000
     17      24.9818      0.00000
     18      25.3235      0.00000
     19      27.1861      0.00000
     20      27.2657      0.00000
     21      28.8163      0.00000
     22      29.5361      0.00000
     23      31.5830      0.00000
     24      32.8704      0.00000
     25      33.5310      0.00000
     26      34.4379      0.00000
     27      36.9945      0.00000
     28      37.8516      0.00000
     29      37.9521      0.00000
     30      38.4370      0.00000
     31      39.1279      0.00000
     32      42.6061      0.00000

 k-point    28 :      -0.1250    0.3750    0.1250
  band No.  band energies     occupation 
      1      -2.0575      1.00000
      2      -2.0575      1.00000
      3       2.2759      1.00000
      4       2.2759      1.00000
      5       7.6001      0.00000
      6       7.6001      0.00000
      7      13.3641      0.00000
      8      13.3642      0.00000
      9      16.0656      0.00000
     10      16.0656      0.00000
     11      18.3323      0.00000
     12      18.3323      0.00000
     13      20.9876      0.00000
     14      20.9876      0.00000
     15      22.8403      0.00000
     16      22.8403      0.00000
     17      24.4919      0.00000
     18      24.4919      0.00000
     19      27.0596      0.00000
     20      27.0597      0.00000
     21      28.3989      0.00000
     22      28.3989      0.00000
     23      29.4300      0.00000
     24      29.4300      0.00000
     25      35.5563      0.00000
     26      35.5563      0.00000
     27      37.3302      0.00000
     28      37.3302      0.00000
     29      37.7321      0.00000
     30      37.7321      0.00000
     31      41.5512      0.00000
     32      41.5512      0.00000

 k-point    29 :      -0.2500    0.2500    0.2500
  band No.  band energies     occupation 
      1      -1.9768      1.00000
      2      -1.9768      1.00000
      3       1.8543      1.00000
      4       1.8543      1.00000
      5       9.8842      0.00000
      6       9.8842      0.00000
      7      10.5441      0.00000
      8      10.5441      0.00000
      9      16.0632      0.00000
     10      16.0632      0.00000
     11      18.4816      0.00000
     12      18.4816      0.00000
     13      21.9137      0.00000
     14      21.9137      0.00000
     15      24.0133      0.00000
     16      24.0133      0.00000
     17      24.2649      0.00000
     18      24.2649      0.00000
     19      25.1835      0.00000
     20      25.1835      0.00000
     21      29.0279      0.00000
     22      29.0279      0.00000
     23      32.8146      0.00000
     24      32.8146      0.00000
     25      32.9583      0.00000
     26      32.9583      0.00000
     27      34.6879      0.00000
     28      34.6879      0.00000
     29      37.9368      0.00000
     30      37.9368      0.00000
     31      41.9734      0.00000
     32      41.9734      0.00000


--------------------------------------------------------------------------------------------------------


 soft charge-density along one line, spin component           1
         0         1         2         3         4         5         6         7         8         9
 total charge-density along one line
 
 soft charge-density along one line, spin component           2
         0         1         2         3         4         5         6         7         8         9
 total charge-density along one line
 
 pseudopotential strength for first ion, spin component:           1
 18.437  -0.001   0.000   0.000   0.000  -0.000  -0.000  -0.000
 -0.001   0.006  -0.000  -0.000  -0.000   0.000   0.000   0.000
  0.000  -0.000   4.180   0.000  -0.000  -0.004  -0.000   0.000
  0.000  -0.000   0.000   4.180  -0.000  -0.000  -0.004   0.000
  0.000  -0.000  -0.000  -0.000   4.180   0.000   0.000  -0.004
 -0.000   0.000  -0.004  -0.000   0.000   0.005   0.000  -0.000
 -0.000   0.000  -0.000  -0.004   0.000   0.000   0.005  -0.000
 -0.000   0.000   0.000   0.000  -0.004  -0.000  -0.000   0.005
 pseudopotential strength for first ion, spin component:           2
 18.438  -0.001   0.000  -0.000  -0.000  -0.000   0.000   0.000
 -0.001   0.006  -0.000   0.000   0.000   0.000  -0.000  -0.000
  0.000  -0.000   4.181  -0.000  -0.000  -0.004   0.000   0.000
 -0.000   0.000  -0.000   4.181   0.000   0.000  -0.004  -0.000
 -0.000   0.000  -0.000   0.000   4.181   0.000  -0.000  -0.004
 -0.000   0.000  -0.004   0.000   0.000   0.005   0.000  -0.000
  0.000  -0.000   0.000  -0.004  -0.000   0.000   0.005   0.000
  0.000  -0.000   0.000  -0.000  -0.004  -0.000   0.000   0.005
 total augmentation occupancy for first ion, spin component:           1
  1.494  -0.761  -0.000  -0.000  -0.000   0.000   0.000   0.000
 -0.761   0.746   0.000  -0.000  -0.000  -0.000  -0.000   0.000
 -0.000   0.000   1.017   0.000   0.000  -0.548  -0.000  -0.000
 -0.000   0.000   0.000   1.017   0.000  -0.000  -0.548  -0.000
 -0.000   0.000   0.000   0.000   1.017  -0.000  -0.000  -0.548
  0.000   0.000  -0.548  -0.000  -0.000   0.349   0.000   0.000
 -0.000  -0.000  -0.000  -0.548  -0.000   0.000   0.349   0.000
 -0.000   0.000  -0.000  -0.000  -0.548   0.000   0.000   0.349
 total augmentation occupancy for first ion, spin component:           2
 -0.000  -0.000   0.000   0.000   0.000  -0.000   0.000  -0.000
 -0.000   0.000  -0.000   0.000   0.000   0.000  -0.000  -0.000
 -0.000   0.000  -0.000  -0.000  -0.000  -0.000  -0.000  -0.000
  0.000   0.000  -0.000  -0.000  -0.000  -0.000  -0.000  -0.000
  0.000   0.000  -0.000  -0.000  -0.000  -0.000  -0.000  -0.000
  0.000   0.000  -0.000  -0.000  -0.000   0.000   0.000   0.000
  0.000  -0.000  -0.000  -0.000  -0.000   0.000   0.000   0.000
  0.000  -0.000  -0.000  -0.000  -0.000   0.000   0.000   0.000


------------------------ aborting loop because EDIFF is reached ----------------------------------------


 


 total charge     
 
# of ion     s       p       d       tot
----------------------------------------
  1        0.750   0.928   0.000   1.679
  2        0.750   0.928   0.000   1.679
------------------------------------------------
tot        1.501   1.857   0.000   3.358
 


 magnetization (x)
 
# of ion     s       p       d       tot
----------------------------------------
  1        0.000   0.000   0.000   0.000
  2        0.000   0.000   0.000   0.000
------------------------------------------------
tot        0.000   0.000   0.000   0.000
 
    CHARGE:  cpu time    0.0560: real time    0.0560
    FORLOC:  cpu time    0.0020: real time    0.0011
    FORNL :  cpu time    0.1280: real time    0.1283
    STRESS:  cpu time    0.3809: real time    0.3821
    FORCOR:  cpu time    0.1120: real time    0.1113
    FORHAR:  cpu time    0.0150: real time    0.0153
    MIXING:  cpu time    0.0010: real time    0.0014
    OFIELD:  cpu time    0.0000: real time    0.0000

  FORCE on cell =-STRESS in cart. coord.  units (eV):
  Direction    XX          YY          ZZ          XY          YZ          ZX
  --------------------------------------------------------------------------------------
  Alpha Z     3.29187     3.29187     3.29187
  Ewald     -75.63840   -75.63834   -75.63837    -0.00000     0.00002    -0.00000
  Hartree     5.06305     5.06306     5.06305     0.00000     0.00001     0.00000
  E(xc)     -25.24614   -25.24614   -25.24614     0.00000     0.00000     0.00000
  Local     -29.52113   -29.52119   -29.52117     0.00000    -0.00004     0.00000
  n-local    76.53839    76.88206    78.87933     1.26754    -3.50745     0.06146
  augment   -11.64154   -11.64154   -11.64154    -0.00000     0.00000    -0.00000
  Kinetic    53.92689    56.53030    58.30593     0.55928    -2.75016     1.78356
  Fock        0.00000     0.00000     0.00000     0.00000     0.00000     0.00000
  -------------------------------------------------------------------------------------
  Total      -0.00465    -0.00465    -0.00465     0.00000    -0.00000     0.00000
  in kB      -0.18217    -0.18217    -0.18217     0.00000    -0.00000     0.00000
  external pressure =       -0.18 kB  Pullay stress =        0.00 kB


 VOLUME and BASIS-vectors are now :
 -----------------------------------------------------------------------------
  energy-cutoff  :      520.00
  volume of cell :       40.90
      direct lattice vectors                 reciprocal lattice vectors
     3.867483519 -0.000000000 -0.000000000     0.258566066 -0.149283143 -0.105559043
     1.933741760  3.349339974  0.000000015     0.000000000  0.298566286  0.211118086
    -0.000000000 -2.232891287  3.157787533     0.000000000 -0.000000001  0.316677416

  length of vectors
     3.867483519  3.867484383  3.867483110     0.316677405  0.365667435  0.316677416


 FORCES acting on ions
    electron-ion (+dipol)            ewald-force                    non-local-force                 convergence-correction
 -----------------------------------------------------------------------------------------------
   -.588E-08 0.592E-05 -.503E-07   0.493E-15 -.101E-04 0.757E-07   0.486E-16 -.312E-16 0.347E-16   -.230E-09 0.784E-09 -.193E-09
   0.588E-08 -.592E-05 0.503E-07   -.691E-15 0.101E-04 -.757E-07   -.763E-16 0.104E-16 -.486E-16   0.230E-09 -.784E-09 0.193E-09
 -----------------------------------------------------------------------------------------------
   -.886E-13 -.398E-14 0.101E-12   -.198E-15 0.661E-17 -.165E-16   -.278E-16 -.208E-16 -.139E-16   -.617E-15 0.123E-14 -.150E-14
 
 
 POSITION                                       TOTAL-FORCE (eV/Angst)
 -----------------------------------------------------------------------------------
     -0.00000     -0.00000     -0.00000         0.000000      0.000000      0.000000
      3.86748      0.00000      2.36834        -0.000000     -0.000000     -0.000000
 -----------------------------------------------------------------------------------
    total drift:                               -0.000000     -0.000000      0.000000


--------------------------------------------------------------------------------------------------------



  FREE ENERGIE OF THE ION-ELECTRON SYSTEM (eV)
  ---------------------------------------------------
  free  energy   TOTEN  =       -10.84671462 eV

  energy  without entropy=      -10.84671462  energy(sigma->0) =      -10.84671462
 
 d Force = 0.0000000E+00[ 0.000E+00, 0.000E+00]  d Energy = 0.2295770E-02-0.230E-02
 d Force = 0.0000000E+00[ 0.000E+00, 0.000E+00]  d Ewald  = 0.1052792E+01-0.105E+01


--------------------------------------------------------------------------------------------------------


    POTLOK:  cpu time    0.1370: real time    0.1374


--------------------------------------------------------------------------------------------------------




--------------------------------------------------------------------------------------------------------


  
 reached required accuracy - stopping structural energy minimisation
     LOOP+:  cpu time    8.6147: real time    8.6389
    4ORBIT:  cpu time    0.0000: real time    0.0000
 


 total charge     
 
# of ion     s       p       d       tot
----------------------------------------
  1        0.750   0.928   0.000   1.679
  2        0.750   0.928   0.000   1.679
------------------------------------------------
tot        1.501   1.857   0.000   3.358
 


 magnetization (x)
 
# of ion     s       p       d       tot
----------------------------------------
  1        0.000   0.000   0.000   0.000
  2        0.000   0.000   0.000   0.000
------------------------------------------------
tot        0.000   0.000   0.000   0.000
 
 BZINTS: Fermi energy:  5.641454;  8.000000 electrons
         Band energy:   4.911306;  BLOECHL correction:  0.000000

 total amount of memory used by VASP on root node    35025. kBytes
========================================================================

   base      :      30000. kBytes
   nonlr-proj:        859. kBytes
   fftplans  :        365. kBytes
   grid      :       2720. kBytes
   one-center:         12. kBytes
   wavefun   :       1069. kBytes
 
  
  
 General timing and accounting informations for this job:
 ========================================================
  
                  Total CPU time used (sec):       47.521
                            User time (sec):       26.842
                          System time (sec):       20.679
                         Elapsed time (sec):       48.244
  
                   Maximum memory used (kb):       42160.
                   Average memory used (kb):           0.
  
                          Minor page faults:        11905
                          Major page faults:            0
                 Voluntary context switches:        23681
