PROCAR lm decomposed
# of k-points:   29         # of bands:  32         # of ions:   2

 k-point    1 :    0.00000000 0.00000000 0.00000000     weight = 0.00195312

band   1 # energy   -6.19940844 # occ.  1.00000000
 
ion      s     py     pz     px    dxy    dyz    dz2    dxz    dx2    tot
  1  0.212  0.000  0.000  0.000  0.000  0.000  0.000  0.000  0.000  0.212
  2  0.212  0.000  0.000  0.000  0.000  0.000  0.000  0.000  0.000  0.212
tot  0.424  0.000  0.000  0.000  0.000  0.000  0.000  0.000  0.000  0.424
 
band   2 # energy    5.61301036 # occ.  1.00000000
 
ion      s     py     pz     px    dxy    dyz    dz2    dxz    dx2    tot
  1  0.000  0.156  0.058  0.000  0.000  0.000  0.000  0.000  0.000  0.214
  2  0.000  0.156  0.058  0.000  0.000  0.000  0.000  0.000  0.000  0.214
tot  0.000  0.311  0.116  0.000  0.000  0.000  0.000  0.000  0.000  0.428
 
band   3 # energy    5.61301424 # occ.  1.00000000
 
ion      s     py     pz     px    dxy    dyz    dz2    dxz    dx2    tot
  1  0.000  0.058  0.156  0.000  0.000  0.000  0.000  0.000  0.000  0.214
  2  0.000  0.058  0.156  0.000  0.000  0.000  0.000  0.000  0.000  0.214
tot  0.000  0.116  0.311  0.000  0.000  0.000  0.000  0.000  0.000  0.428
 
band   4 # energy    5.61301486 # occ.  1.00000000
 
ion      s     py     pz     px    dxy    dyz    dz2    dxz    dx2    tot
  1  0.000  0.000  0.000  0.214  0.000  0.000  0.000  0.000  0.000  0.214
  2  0.000  0.000  0.000  0.214  0.000  0.000  0.000  0.000  0.000  0.214
tot  0.000  0.000  0.000  0.427  0.000  0.000  0.000  0.000  0.000  0.428
 
band   5 # energy    8.16915695 # occ.  0.00000000
 
ion      s     py     pz     px    dxy    dyz    dz2    dxz    dx2    tot
  1  0.000  0.000  0.000  0.151  0.000  0.000  0.000  0.000  0.000  0.151
  2  0.000  0.000  0.000  0.151  0.000  0.000  0.000  0.000  0.000  0.151
tot  0.000  0.000  0.000  0.301  0.000  0.000  0.000  0.000  0.000  0.301
 
band   6 # energy    8.16915846 # occ.  0.00000000
 
ion      s     py     pz     px    dxy    dyz    dz2    dxz    dx2    tot
  1  0.000  0.009  0.141  0.000  0.000  0.000  0.000  0.000  0.000  0.151
  2  0.000  0.009  0.141  0.000  0.000  0.000  0.000  0.000  0.000  0.151
tot  0.000  0.019  0.283  0.000  0.000  0.000  0.000  0.000  0.000  0.301
 
band   7 # energy    8.16916026 # occ.  0.00000000
 
ion      s     py     pz     px    dxy    dyz    dz2    dxz    dx2    tot
  1  0.000  0.141  0.009  0.000  0.000  0.000  0.000  0.000  0.000  0.151
  2  0.000  0.141  0.009  0.000  0.000  0.000  0.000  0.000  0.000  0.151
tot  0.000  0.283  0.019  0.000  0.000  0.000  0.000  0.000  0.000  0.301
 
band   8 # energy    8.74253193 # occ.  0.00000000
 
ion      s     py     pz     px    dxy    dyz    dz2    dxz    dx2    tot
  1  0.359  0.000  0.000  0.000  0.000  0.000  0.000  0.000  0.000  0.359
  2  0.359  0.000  0.000  0.000  0.000  0.000  0.000  0.000  0.000  0.359
tot  0.717  0.000  0.000  0.000  0.000  0.000  0.000  0.000  0.000  0.717
 
band   9 # energy   13.32161822 # occ.  0.00000000
 
ion      s     py     pz     px    dxy    dyz    dz2    dxz    dx2    tot
  1  0.000  0.000  0.000  0.000  0.000  0.000  0.000  0.000  0.000  0.000
  2  0.000  0.000  0.000  0.000  0.000  0.000  0.000  0.000  0.000  0.000
tot  0.000  0.000  0.000  0.000  0.000  0.000  0.000  0.000  0.000  0.000
 
band  10 # energy   13.32162917 # occ.  0.00000000
 
ion      s     py     pz     px    dxy    dyz    dz2    dxz    dx2    tot
  1  0.000  0.000  0.000  0.000  0.000  0.000  0.000  0.000  0.000  0.000
  2  0.000  0.000  0.000  0.000  0.000  0.000  0.000  0.000  0.000  0.000
tot  0.000  0.000  0.000  0.000  0.000  0.000  0.000  0.000  0.000  0.000
 
band  11 # energy   13.49108409 # occ.  0.00000000
 
ion      s     py     pz     px    dxy    dyz    dz2    dxz    dx2    tot
  1  0.100  0.000  0.000  0.000  0.000  0.000  0.000  0.000  0.000  0.100
  2  0.100  0.000  0.000  0.000  0.000  0.000  0.000  0.000  0.000  0.100
tot  0.201  0.000  0.000  0.000  0.000  0.000  0.000  0.000  0.000  0.201
 
band  12 # energy   16.79390756 # occ.  0.00000000
 
ion      s     py     pz     px    dxy    dyz    dz2    dxz    dx2    tot
  1  0.000  0.026  0.014  0.000  0.000  0.000  0.000  0.000  0.000  0.039
  2  0.000  0.026  0.014  0.000  0.000  0.000  0.000  0.000  0.000  0.039
tot  0.000  0.051  0.027  0.000  0.000  0.000  0.000  0.000  0.000  0.078
 
band  13 # energy   16.79392406 # occ.  0.00000000
 
ion      s     py     pz     px    dxy    dyz    dz2    dxz    dx2    tot
  1  0.000  0.000  0.000  0.039  0.000  0.000  0.000  0.000  0.000  0.039
  2  0.000  0.000  0.000  0.039  0.000  0.000  0.000  0.000  0.000  0.039
tot  0.000  0.000  0.000  0.078  0.000  0.000  0.000  0.000  0.000  0.078
 
band  14 # energy   16.79392484 # occ.  0.00000000
 
ion      s     py     pz     px    dxy    dyz    dz2    dxz    dx2    tot
  1  0.000  0.014  0.026  0.000  0.000  0.000  0.000  0.000  0.000  0.039
  2  0.000  0.014  0.026  0.000  0.000  0.000  0.000  0.000  0.000  0.039
tot  0.000  0.027  0.051  0.000  0.000  0.000  0.000  0.000  0.000  0.078
 
band  15 # energy   20.88763436 # occ.  0.00000000
 
ion      s     py     pz     px    dxy    dyz    dz2    dxz    dx2    tot
  1  0.037  0.000  0.000  0.000  0.000  0.000  0.000  0.000  0.000  0.037
  2  0.037  0.000  0.000  0.000  0.000  0.000  0.000  0.000  0.000  0.037
tot  0.075  0.000  0.000  0.000  0.000  0.000  0.000  0.000  0.000  0.075
 
band  16 # energy   28.46369444 # occ.  0.00000000
 
ion      s     py     pz     px    dxy    dyz    dz2    dxz    dx2    tot
  1  0.000  0.004  0.007  0.000  0.000  0.000  0.000  0.000  0.000  0.010
  2  0.000  0.004  0.007  0.000  0.000  0.000  0.000  0.000  0.000  0.010
tot  0.000  0.007  0.013  0.000  0.000  0.000  0.000  0.000  0.000  0.020
 
band  17 # energy   28.46369525 # occ.  0.00000000
 
ion      s     py     pz     px    dxy    dyz    dz2    dxz    dx2    tot
  1  0.000  0.000  0.000  0.010  0.000  0.000  0.000  0.000  0.000  0.010
  2  0.000  0.000  0.000  0.010  0.000  0.000  0.000  0.000  0.000  0.010
tot  0.000  0.000  0.000  0.020  0.000  0.000  0.000  0.000  0.000  0.020
 
band  18 # energy   28.46371317 # occ.  0.00000000
 
ion      s     py     pz     px    dxy    dyz    dz2    dxz    dx2    tot
  1  0.000  0.007  0.004  0.000  0.000  0.000  0.000  0.000  0.000  0.010
  2  0.000  0.007  0.004  0.000  0.000  0.000  0.000  0.000  0.000  0.010
tot  0.000  0.013  0.007  0.000  0.000  0.000  0.000  0.000  0.000  0.020
 
band  19 # energy   29.54386185 # occ.  0.00000000
 
ion      s     py     pz     px    dxy    dyz    dz2    dxz    dx2    tot
  1  0.000  0.000  0.000  0.000  0.000  0.000  0.000  0.000  0.000  0.000
  2  0.000  0.000  0.000  0.000  0.000  0.000  0.000  0.000  0.000  0.000
tot  0.000  0.000  0.000  0.000  0.000  0.000  0.000  0.000  0.000  0.000
 
band  20 # energy   29.54387445 # occ.  0.00000000
 
ion      s     py     pz     px    dxy    dyz    dz2    dxz    dx2    tot
  1  0.000  0.000  0.000  0.000  0.000  0.000  0.000  0.000  0.000  0.000
  2  0.000  0.000  0.000  0.000  0.000  0.000  0.000  0.000  0.000  0.000
tot  0.000  0.000  0.000  0.000  0.000  0.000  0.000  0.000  0.000  0.000
 
band  21 # energy   30.98801543 # occ.  0.00000000
 
ion      s     py     pz     px    dxy    dyz    dz2    dxz    dx2    tot
  1  0.000  0.128  0.097  0.000  0.000  0.000  0.000  0.000  0.000  0.225
  2  0.000  0.128  0.097  0.000  0.000  0.000  0.000  0.000  0.000  0.225
tot  0.000  0.256  0.194  0.000  0.000  0.000  0.000  0.000  0.000  0.450
 
band  22 # energy   30.98802378 # occ.  0.00000000
 
ion      s     py     pz     px    dxy    dyz    dz2    dxz    dx2    tot
  1  0.000  0.000  0.000  0.225  0.000  0.000  0.000  0.000  0.000  0.225
  2  0.000  0.000  0.000  0.225  0.000  0.000  0.000  0.000  0.000  0.225
tot  0.000  0.000  0.000  0.450  0.000  0.000  0.000  0.000  0.000  0.450
 
band  23 # energy   30.98802732 # occ.  0.00000000
 
ion      s     py     pz     px    dxy    dyz    dz2    dxz    dx2    tot
  1  0.000  0.097  0.128  0.000  0.000  0.000  0.000  0.000  0.000  0.225
  2  0.000  0.097  0.128  0.000  0.000  0.000  0.000  0.000  0.000  0.225
tot  0.000  0.194  0.256  0.000  0.000  0.000  0.000  0.000  0.000  0.450
 
band  24 # energy   34.51885545 # occ.  0.00000000
 
ion      s     py     pz     px    dxy    dyz    dz2    dxz    dx2    tot
  1  0.000  0.000  0.000  0.000  0.000  0.000  0.000  0.000  0.000  0.000
  2  0.000  0.000  0.000  0.000  0.000  0.000  0.000  0.000  0.000  0.000
tot  0.000  0.000  0.000  0.000  0.000  0.000  0.000  0.000  0.000  0.000
 
band  25 # energy   34.51886621 # occ.  0.00000000
 
ion      s     py     pz     px    dxy    dyz    dz2    dxz    dx2    tot
  1  0.000  0.000  0.000  0.000  0.000  0.000  0.000  0.000  0.000  0.000
  2  0.000  0.000  0.000  0.000  0.000  0.000  0.000  0.000  0.000  0.000
tot  0.000  0.000  0.000  0.000  0.000  0.000  0.000  0.000  0.000  0.000
 
band  26 # energy   34.51886901 # occ.  0.00000000
 
ion      s     py     pz     px    dxy    dyz    dz2    dxz    dx2    tot
  1  0.000  0.000  0.000  0.000  0.000  0.000  0.000  0.000  0.000  0.000
  2  0.000  0.000  0.000  0.000  0.000  0.000  0.000  0.000  0.000  0.000
tot  0.000  0.000  0.000  0.000  0.000  0.000  0.000  0.000  0.000  0.000
 
band  27 # energy   40.10180795 # occ.  0.00000000
 
ion      s     py     pz     px    dxy    dyz    dz2    dxz    dx2    tot
  1  0.000  0.000  0.000  0.006  0.000  0.000  0.000  0.000  0.000  0.006
  2  0.000  0.000  0.000  0.006  0.000  0.000  0.000  0.000  0.000  0.006
tot  0.000  0.000  0.000  0.011  0.000  0.000  0.000  0.000  0.000  0.011
 
band  28 # energy   40.10181087 # occ.  0.00000000
 
ion      s     py     pz     px    dxy    dyz    dz2    dxz    dx2    tot
  1  0.000  0.000  0.006  0.000  0.000  0.000  0.000  0.000  0.000  0.006
  2  0.000  0.000  0.006  0.000  0.000  0.000  0.000  0.000  0.000  0.006
tot  0.000  0.000  0.011  0.000  0.000  0.000  0.000  0.000  0.000  0.011
 
band  29 # energy   40.10181406 # occ.  0.00000000
 
ion      s     py     pz     px    dxy    dyz    dz2    dxz    dx2    tot
  1  0.000  0.006  0.000  0.000  0.000  0.000  0.000  0.000  0.000  0.006
  2  0.000  0.006  0.000  0.000  0.000  0.000  0.000  0.000  0.000  0.006
tot  0.000  0.011  0.000  0.000  0.000  0.000  0.000  0.000  0.000  0.011
 
band  30 # energy   43.40756259 # occ.  0.00000000
 
ion      s     py     pz     px    dxy    dyz    dz2    dxz    dx2    tot
  1  0.095  0.000  0.000  0.000  0.000  0.000  0.000  0.000  0.000  0.095
  2  0.095  0.000  0.000  0.000  0.000  0.000  0.000  0.000  0.000  0.095
tot  0.191  0.000  0.000  0.000  0.000  0.000  0.000  0.000  0.000  0.191
 
band  31 # energy   43.87646027 # occ.  0.00000000
 
ion      s     py     pz     px    dxy    dyz    dz2    dxz    dx2    tot
  1  0.000  0.000  0.000  0.000  0.000  0.000  0.000  0.000  0.000  0.000
  2  0.000  0.000  0.000  0.000  0.000  0.000  0.000  0.000  0.000  0.000
tot  0.000  0.000  0.000  0.000  0.000  0.000  0.000  0.000  0.000  0.000
 
band  32 # energy   43.87648471 # occ.  0.00000000
 
ion      s     py     pz     px    dxy    dyz    dz2    dxz    dx2    tot
  1  0.000  0.000  0.000  0.000  0.000  0.000  0.000  0.000  0.000  0.000
  2  0.000  0.000  0.000  0.000  0.000  0.000  0.000  0.000  0.000  0.000
tot  0.000  0.000  0.000  0.000  0.000  0.000  0.000  0.000  0.000  0.000
 

 k-point    2 :    0.12500000 0.00000000-0.00000000     weight = 0.01562500

band   1 # energy   -5.99899707 # occ.  1.00000000
 
ion      s     py     pz     px    dxy    dyz    dz2    dxz    dx2    tot
  1  0.211  0.000  0.000  0.001  0.000  0.000  0.000  0.000  0.000  0.213
  2  0.211  0.000  0.000  0.001  0.000  0.000  0.000  0.000  0.000  0.213
tot  0.422  0.001  0.000  0.003  0.000  0.000  0.000  0.000  0.000  0.426
 
band   2 # energy    4.02229667 # occ.  1.00000000
 
ion      s     py     pz     px    dxy    dyz    dz2    dxz    dx2    tot
  1  0.064  0.034  0.017  0.103  0.000  0.000  0.000  0.000  0.000  0.219
  2  0.064  0.034  0.017  0.103  0.000  0.000  0.000  0.000  0.000  0.219
tot  0.128  0.069  0.034  0.207  0.000  0.000  0.000  0.000  0.000  0.438
 
band   3 # energy    5.33067169 # occ.  1.00000000
 
ion      s     py     pz     px    dxy    dyz    dz2    dxz    dx2    tot
  1  0.000  0.105  0.036  0.070  0.000  0.000  0.000  0.000  0.000  0.211
  2  0.000  0.105  0.036  0.070  0.000  0.000  0.000  0.000  0.000  0.211
tot  0.000  0.210  0.072  0.140  0.000  0.000  0.000  0.000  0.000  0.422
 
band   4 # energy    5.33067465 # occ.  1.00000000
 
ion      s     py     pz     px    dxy    dyz    dz2    dxz    dx2    tot
  1  0.000  0.059  0.152  0.000  0.000  0.000  0.000  0.000  0.000  0.211
  2  0.000  0.059  0.152  0.000  0.000  0.000  0.000  0.000  0.000  0.211
tot  0.000  0.118  0.303  0.001  0.000  0.000  0.000  0.000  0.000  0.422
 
band   5 # energy    8.05480384 # occ.  0.00000000
 
ion      s     py     pz     px    dxy    dyz    dz2    dxz    dx2    tot
  1  0.110  0.020  0.010  0.059  0.000  0.000  0.000  0.000  0.000  0.198
  2  0.110  0.020  0.010  0.059  0.000  0.000  0.000  0.000  0.000  0.198
tot  0.220  0.039  0.020  0.118  0.000  0.000  0.000  0.000  0.000  0.396
 
band   6 # energy    8.58453790 # occ.  0.00000000
 
ion      s     py     pz     px    dxy    dyz    dz2    dxz    dx2    tot
  1  0.000  0.001  0.126  0.027  0.000  0.000  0.000  0.000  0.000  0.154
  2  0.000  0.001  0.126  0.027  0.000  0.000  0.000  0.000  0.000  0.154
tot  0.000  0.002  0.251  0.054  0.000  0.000  0.000  0.000  0.000  0.308
 
band   7 # energy    8.58453888 # occ.  0.00000000
 
ion      s     py     pz     px    dxy    dyz    dz2    dxz    dx2    tot
  1  0.000  0.119  0.011  0.024  0.000  0.000  0.000  0.000  0.000  0.154
  2  0.000  0.119  0.011  0.024  0.000  0.000  0.000  0.000  0.000  0.154
tot  0.000  0.237  0.023  0.048  0.000  0.000  0.000  0.000  0.000  0.308
 
band   8 # energy   10.14260630 # occ.  0.00000000
 
ion      s     py     pz     px    dxy    dyz    dz2    dxz    dx2    tot
  1  0.196  0.022  0.011  0.066  0.000  0.000  0.000  0.000  0.000  0.295
  2  0.196  0.022  0.011  0.066  0.000  0.000  0.000  0.000  0.000  0.295
tot  0.392  0.044  0.022  0.132  0.000  0.000  0.000  0.000  0.000  0.590
 
band   9 # energy   12.84893408 # occ.  0.00000000
 
ion      s     py     pz     px    dxy    dyz    dz2    dxz    dx2    tot
  1  0.000  0.001  0.000  0.001  0.000  0.000  0.000  0.000  0.000  0.002
  2  0.000  0.001  0.000  0.001  0.000  0.000  0.000  0.000  0.000  0.002
tot  0.000  0.002  0.001  0.001  0.000  0.000  0.000  0.000  0.000  0.004
 
band  10 # energy   12.84894287 # occ.  0.00000000
 
ion      s     py     pz     px    dxy    dyz    dz2    dxz    dx2    tot
  1  0.000  0.001  0.001  0.000  0.000  0.000  0.000  0.000  0.000  0.002
  2  0.000  0.001  0.001  0.000  0.000  0.000  0.000  0.000  0.000  0.002
tot  0.000  0.001  0.002  0.000  0.000  0.000  0.000  0.000  0.000  0.004
 
band  11 # energy   14.26638450 # occ.  0.00000000
 
ion      s     py     pz     px    dxy    dyz    dz2    dxz    dx2    tot
  1  0.077  0.007  0.004  0.021  0.000  0.000  0.000  0.000  0.000  0.109
  2  0.077  0.007  0.004  0.021  0.000  0.000  0.000  0.000  0.000  0.109
tot  0.155  0.014  0.007  0.043  0.000  0.000  0.000  0.000  0.000  0.219
 
band  12 # energy   16.24095394 # occ.  0.00000000
 
ion      s     py     pz     px    dxy    dyz    dz2    dxz    dx2    tot
  1  0.015  0.005  0.002  0.015  0.000  0.000  0.000  0.000  0.000  0.037
  2  0.015  0.005  0.002  0.015  0.000  0.000  0.000  0.000  0.000  0.037
tot  0.030  0.010  0.005  0.029  0.000  0.000  0.000  0.000  0.000  0.074
 
band  13 # energy   17.93867673 # occ.  0.00000000
 
ion      s     py     pz     px    dxy    dyz    dz2    dxz    dx2    tot
  1  0.000  0.015  0.008  0.012  0.000  0.000  0.000  0.000  0.000  0.035
  2  0.000  0.015  0.008  0.012  0.000  0.000  0.000  0.000  0.000  0.035
tot  0.000  0.031  0.016  0.023  0.000  0.000  0.000  0.000  0.000  0.070
 
band  14 # energy   17.93868950 # occ.  0.00000000
 
ion      s     py     pz     px    dxy    dyz    dz2    dxz    dx2    tot
  1  0.000  0.012  0.023  0.000  0.000  0.000  0.000  0.000  0.000  0.035
  2  0.000  0.012  0.023  0.000  0.000  0.000  0.000  0.000  0.000  0.035
tot  0.000  0.024  0.046  0.000  0.000  0.000  0.000  0.000  0.000  0.070
 
band  15 # energy   22.10088749 # occ.  0.00000000
 
ion      s     py     pz     px    dxy    dyz    dz2    dxz    dx2    tot
  1  0.025  0.003  0.002  0.010  0.000  0.000  0.000  0.000  0.000  0.040
  2  0.025  0.003  0.002  0.010  0.000  0.000  0.000  0.000  0.000  0.040
tot  0.049  0.007  0.003  0.021  0.000  0.000  0.000  0.000  0.000  0.080
 
band  16 # energy   26.45564958 # occ.  0.00000000
 
ion      s     py     pz     px    dxy    dyz    dz2    dxz    dx2    tot
  1  0.000  0.012  0.030  0.000  0.000  0.000  0.000  0.000  0.000  0.042
  2  0.000  0.012  0.030  0.000  0.000  0.000  0.000  0.000  0.000  0.042
tot  0.000  0.024  0.060  0.000  0.000  0.000  0.000  0.000  0.000  0.084
 
band  17 # energy   26.45565993 # occ.  0.00000000
 
ion      s     py     pz     px    dxy    dyz    dz2    dxz    dx2    tot
  1  0.000  0.021  0.008  0.014  0.000  0.000  0.000  0.000  0.000  0.042
  2  0.000  0.021  0.008  0.014  0.000  0.000  0.000  0.000  0.000  0.042
tot  0.000  0.041  0.015  0.028  0.000  0.000  0.000  0.000  0.000  0.084
 
band  18 # energy   26.73506672 # occ.  0.00000000
 
ion      s     py     pz     px    dxy    dyz    dz2    dxz    dx2    tot
  1  0.007  0.022  0.011  0.065  0.000  0.000  0.000  0.000  0.000  0.104
  2  0.007  0.022  0.011  0.065  0.000  0.000  0.000  0.000  0.000  0.104
tot  0.014  0.043  0.022  0.130  0.000  0.000  0.000  0.000  0.000  0.208
 
band  19 # energy   29.20400198 # occ.  0.00000000
 
ion      s     py     pz     px    dxy    dyz    dz2    dxz    dx2    tot
  1  0.000  0.003  0.004  0.000  0.000  0.000  0.000  0.000  0.000  0.007
  2  0.000  0.003  0.004  0.000  0.000  0.000  0.000  0.000  0.000  0.007
tot  0.000  0.005  0.009  0.000  0.000  0.000  0.000  0.000  0.000  0.014
 
band  20 # energy   29.20401612 # occ.  0.00000000
 
ion      s     py     pz     px    dxy    dyz    dz2    dxz    dx2    tot
  1  0.000  0.003  0.002  0.002  0.000  0.000  0.000  0.000  0.000  0.007
  2  0.000  0.003  0.002  0.002  0.000  0.000  0.000  0.000  0.000  0.007
tot  0.000  0.006  0.004  0.005  0.000  0.000  0.000  0.000  0.000  0.014
 
band  21 # energy   31.52795044 # occ.  0.00000000
 
ion      s     py     pz     px    dxy    dyz    dz2    dxz    dx2    tot
  1  0.000  0.070  0.050  0.059  0.000  0.000  0.000  0.000  0.000  0.179
  2  0.000  0.070  0.050  0.059  0.000  0.000  0.000  0.000  0.000  0.179
tot  0.000  0.140  0.100  0.119  0.000  0.000  0.000  0.000  0.000  0.358
 
band  22 # energy   31.52796398 # occ.  0.00000000
 
ion      s     py     pz     px    dxy    dyz    dz2    dxz    dx2    tot
  1  0.000  0.069  0.109  0.000  0.000  0.000  0.000  0.000  0.000  0.179
  2  0.000  0.069  0.109  0.000  0.000  0.000  0.000  0.000  0.000  0.179
tot  0.000  0.139  0.219  0.001  0.000  0.000  0.000  0.000  0.000  0.358
 
band  23 # energy   32.42794996 # occ.  0.00000000
 
ion      s     py     pz     px    dxy    dyz    dz2    dxz    dx2    tot
  1  0.014  0.024  0.012  0.073  0.000  0.000  0.000  0.000  0.000  0.123
  2  0.014  0.024  0.012  0.073  0.000  0.000  0.000  0.000  0.000  0.123
tot  0.027  0.049  0.024  0.146  0.000  0.000  0.000  0.000  0.000  0.246
 
band  24 # energy   34.70086916 # occ.  0.00000000
 
ion      s     py     pz     px    dxy    dyz    dz2    dxz    dx2    tot
  1  0.000  0.000  0.000  0.000  0.000  0.000  0.000  0.000  0.000  0.000
  2  0.000  0.000  0.000  0.000  0.000  0.000  0.000  0.000  0.000  0.000
tot  0.000  0.000  0.000  0.000  0.000  0.000  0.000  0.000  0.000  0.000
 
band  25 # energy   36.66303293 # occ.  0.00000000
 
ion      s     py     pz     px    dxy    dyz    dz2    dxz    dx2    tot
  1  0.000  0.001  0.002  0.000  0.000  0.000  0.000  0.000  0.000  0.003
  2  0.000  0.001  0.002  0.000  0.000  0.000  0.000  0.000  0.000  0.003
tot  0.000  0.002  0.004  0.000  0.000  0.000  0.000  0.000  0.000  0.006
 
band  26 # energy   36.66304188 # occ.  0.00000000
 
ion      s     py     pz     px    dxy    dyz    dz2    dxz    dx2    tot
  1  0.000  0.001  0.000  0.001  0.000  0.000  0.000  0.000  0.000  0.003
  2  0.000  0.001  0.000  0.001  0.000  0.000  0.000  0.000  0.000  0.003
tot  0.000  0.003  0.001  0.002  0.000  0.000  0.000  0.000  0.000  0.006
 
band  27 # energy   37.74522546 # occ.  0.00000000
 
ion      s     py     pz     px    dxy    dyz    dz2    dxz    dx2    tot
  1  0.005  0.006  0.003  0.017  0.000  0.000  0.000  0.000  0.000  0.030
  2  0.005  0.006  0.003  0.017  0.000  0.000  0.000  0.000  0.000  0.030
tot  0.009  0.011  0.006  0.034  0.000  0.000  0.000  0.000  0.000  0.060
 
band  28 # energy   39.57826296 # occ.  0.00000000
 
ion      s     py     pz     px    dxy    dyz    dz2    dxz    dx2    tot
  1  0.000  0.000  0.016  0.003  0.000  0.000  0.000  0.000  0.000  0.018
  2  0.000  0.000  0.016  0.003  0.000  0.000  0.000  0.000  0.000  0.018
tot  0.000  0.000  0.031  0.006  0.000  0.000  0.000  0.000  0.000  0.037
 
band  29 # energy   39.57826483 # occ.  0.00000000
 
ion      s     py     pz     px    dxy    dyz    dz2    dxz    dx2    tot
  1  0.000  0.014  0.001  0.003  0.000  0.000  0.000  0.000  0.000  0.018
  2  0.000  0.014  0.001  0.003  0.000  0.000  0.000  0.000  0.000  0.018
tot  0.000  0.029  0.002  0.007  0.000  0.000  0.000  0.000  0.000  0.037
 
band  30 # energy   41.99247812 # occ.  0.00000000
 
ion      s     py     pz     px    dxy    dyz    dz2    dxz    dx2    tot
  1  0.000  0.004  0.003  0.003  0.000  0.000  0.000  0.000  0.000  0.010
  2  0.000  0.004  0.003  0.003  0.000  0.000  0.000  0.000  0.000  0.010
tot  0.000  0.008  0.006  0.007  0.000  0.000  0.000  0.000  0.000  0.021
 
band  31 # energy   41.99249799 # occ.  0.00000000
 
ion      s     py     pz     px    dxy    dyz    dz2    dxz    dx2    tot
  1  0.000  0.004  0.006  0.000  0.000  0.000  0.000  0.000  0.000  0.010
  2  0.000  0.004  0.006  0.000  0.000  0.000  0.000  0.000  0.000  0.010
tot  0.000  0.008  0.012  0.000  0.000  0.000  0.000  0.000  0.000  0.021
 
band  32 # energy   43.82381853 # occ.  0.00000000
 
ion      s     py     pz     px    dxy    dyz    dz2    dxz    dx2    tot
  1  0.001  0.000  0.013  0.006  0.000  0.000  0.000  0.000  0.000  0.020
  2  0.001  0.000  0.013  0.006  0.000  0.000  0.000  0.000  0.000  0.020
tot  0.002  0.001  0.026  0.012  0.000  0.000  0.000  0.000  0.000  0.041
 

 k-point    3 :    0.25000000 0.00000000-0.00000000     weight = 0.01562500

band   1 # energy   -5.41478735 # occ.  1.00000000
 
ion      s     py     pz     px    dxy    dyz    dz2    dxz    dx2    tot
  1  0.209  0.002  0.001  0.005  0.000  0.000  0.000  0.000  0.000  0.217
  2  0.209  0.002  0.001  0.005  0.000  0.000  0.000  0.000  0.000  0.217
tot  0.418  0.003  0.002  0.010  0.000  0.000  0.000  0.000  0.000  0.434
 
band   2 # energy    1.72732361 # occ.  1.00000000
 
ion      s     py     pz     px    dxy    dyz    dz2    dxz    dx2    tot
  1  0.097  0.026  0.013  0.078  0.000  0.000  0.000  0.000  0.000  0.214
  2  0.097  0.026  0.013  0.078  0.000  0.000  0.000  0.000  0.000  0.214
tot  0.194  0.052  0.026  0.156  0.000  0.000  0.000  0.000  0.000  0.428
 
band   3 # energy    4.86810810 # occ.  1.00000000
 
ion      s     py     pz     px    dxy    dyz    dz2    dxz    dx2    tot
  1  0.000  0.103  0.038  0.070  0.000  0.000  0.000  0.000  0.000  0.211
  2  0.000  0.103  0.038  0.070  0.000  0.000  0.000  0.000  0.000  0.211
tot  0.000  0.207  0.076  0.140  0.000  0.000  0.000  0.000  0.000  0.422
 
band   4 # energy    4.86811205 # occ.  1.00000000
 
ion      s     py     pz     px    dxy    dyz    dz2    dxz    dx2    tot
  1  0.000  0.061  0.150  0.000  0.000  0.000  0.000  0.000  0.000  0.211
  2  0.000  0.061  0.150  0.000  0.000  0.000  0.000  0.000  0.000  0.211
tot  0.000  0.122  0.300  0.000  0.000  0.000  0.000  0.000  0.000  0.422
 
band   5 # energy    7.57112448 # occ.  0.00000000
 
ion      s     py     pz     px    dxy    dyz    dz2    dxz    dx2    tot
  1  0.156  0.011  0.005  0.032  0.000  0.000  0.000  0.000  0.000  0.205
  2  0.156  0.011  0.005  0.032  0.000  0.000  0.000  0.000  0.000  0.205
tot  0.312  0.022  0.011  0.065  0.000  0.000  0.000  0.000  0.000  0.409
 
band   6 # energy    9.10241139 # occ.  0.00000000
 
ion      s     py     pz     px    dxy    dyz    dz2    dxz    dx2    tot
  1  0.000  0.042  0.052  0.045  0.000  0.000  0.000  0.000  0.000  0.139
  2  0.000  0.042  0.052  0.045  0.000  0.000  0.000  0.000  0.000  0.139
tot  0.000  0.085  0.103  0.090  0.000  0.000  0.000  0.000  0.000  0.277
 
band   7 # energy    9.10241438 # occ.  0.00000000
 
ion      s     py     pz     px    dxy    dyz    dz2    dxz    dx2    tot
  1  0.000  0.066  0.072  0.001  0.000  0.000  0.000  0.000  0.000  0.139
  2  0.000  0.066  0.072  0.001  0.000  0.000  0.000  0.000  0.000  0.139
tot  0.000  0.131  0.143  0.003  0.000  0.000  0.000  0.000  0.000  0.277
 
band   8 # energy   12.36142935 # occ.  0.00000000
 
ion      s     py     pz     px    dxy    dyz    dz2    dxz    dx2    tot
  1  0.111  0.034  0.017  0.101  0.000  0.000  0.000  0.000  0.000  0.262
  2  0.111  0.034  0.017  0.101  0.000  0.000  0.000  0.000  0.000  0.262
tot  0.222  0.067  0.034  0.201  0.000  0.000  0.000  0.000  0.000  0.524
 
band   9 # energy   12.79988773 # occ.  0.00000000
 
ion      s     py     pz     px    dxy    dyz    dz2    dxz    dx2    tot
  1  0.000  0.006  0.004  0.005  0.000  0.000  0.000  0.000  0.000  0.016
  2  0.000  0.006  0.004  0.005  0.000  0.000  0.000  0.000  0.000  0.016
tot  0.000  0.013  0.009  0.011  0.000  0.000  0.000  0.000  0.000  0.032
 
band  10 # energy   12.79989086 # occ.  0.00000000
 
ion      s     py     pz     px    dxy    dyz    dz2    dxz    dx2    tot
  1  0.000  0.006  0.010  0.000  0.000  0.000  0.000  0.000  0.000  0.016
  2  0.000  0.006  0.010  0.000  0.000  0.000  0.000  0.000  0.000  0.016
tot  0.000  0.012  0.020  0.000  0.000  0.000  0.000  0.000  0.000  0.032
 
band  11 # energy   14.54290580 # occ.  0.00000000
 
ion      s     py     pz     px    dxy    dyz    dz2    dxz    dx2    tot
  1  0.048  0.005  0.002  0.014  0.000  0.000  0.000  0.000  0.000  0.069
  2  0.048  0.005  0.002  0.014  0.000  0.000  0.000  0.000  0.000  0.069
tot  0.095  0.009  0.005  0.028  0.000  0.000  0.000  0.000  0.000  0.138
 
band  12 # energy   17.32375292 # occ.  0.00000000
 
ion      s     py     pz     px    dxy    dyz    dz2    dxz    dx2    tot
  1  0.036  0.016  0.008  0.049  0.000  0.000  0.000  0.000  0.000  0.109
  2  0.036  0.016  0.008  0.049  0.000  0.000  0.000  0.000  0.000  0.109
tot  0.073  0.032  0.016  0.097  0.000  0.000  0.000  0.000  0.000  0.218
 
band  13 # energy   20.12464627 # occ.  0.00000000
 
ion      s     py     pz     px    dxy    dyz    dz2    dxz    dx2    tot
  1  0.000  0.016  0.008  0.012  0.000  0.000  0.000  0.000  0.000  0.035
  2  0.000  0.016  0.008  0.012  0.000  0.000  0.000  0.000  0.000  0.035
tot  0.000  0.031  0.016  0.023  0.000  0.000  0.000  0.000  0.000  0.070
 
band  14 # energy   20.12465740 # occ.  0.00000000
 
ion      s     py     pz     px    dxy    dyz    dz2    dxz    dx2    tot
  1  0.000  0.012  0.023  0.000  0.000  0.000  0.000  0.000  0.000  0.035
  2  0.000  0.012  0.023  0.000  0.000  0.000  0.000  0.000  0.000  0.035
tot  0.000  0.023  0.047  0.000  0.000  0.000  0.000  0.000  0.000  0.070
 
band  15 # energy   23.28961597 # occ.  0.00000000
 
ion      s     py     pz     px    dxy    dyz    dz2    dxz    dx2    tot
  1  0.000  0.013  0.036  0.000  0.000  0.000  0.000  0.000  0.000  0.049
  2  0.000  0.013  0.036  0.000  0.000  0.000  0.000  0.000  0.000  0.049
tot  0.000  0.026  0.073  0.000  0.000  0.000  0.000  0.000  0.000  0.099
 
band  16 # energy   23.28962188 # occ.  0.00000000
 
ion      s     py     pz     px    dxy    dyz    dz2    dxz    dx2    tot
  1  0.000  0.025  0.008  0.016  0.000  0.000  0.000  0.000  0.000  0.049
  2  0.000  0.025  0.008  0.016  0.000  0.000  0.000  0.000  0.000  0.049
tot  0.000  0.051  0.015  0.033  0.000  0.000  0.000  0.000  0.000  0.099
 
band  17 # energy   23.37414085 # occ.  0.00000000
 
ion      s     py     pz     px    dxy    dyz    dz2    dxz    dx2    tot
  1  0.022  0.021  0.011  0.064  0.000  0.000  0.000  0.000  0.000  0.117
  2  0.022  0.021  0.011  0.064  0.000  0.000  0.000  0.000  0.000  0.117
tot  0.044  0.042  0.021  0.127  0.000  0.000  0.000  0.000  0.000  0.235
 
band  18 # energy   25.48253504 # occ.  0.00000000
 
ion      s     py     pz     px    dxy    dyz    dz2    dxz    dx2    tot
  1  0.022  0.010  0.005  0.030  0.000  0.000  0.000  0.000  0.000  0.067
  2  0.022  0.010  0.005  0.030  0.000  0.000  0.000  0.000  0.000  0.067
tot  0.044  0.020  0.010  0.061  0.000  0.000  0.000  0.000  0.000  0.135
 
band  19 # energy   29.37921186 # occ.  0.00000000
 
ion      s     py     pz     px    dxy    dyz    dz2    dxz    dx2    tot
  1  0.000  0.002  0.004  0.000  0.000  0.000  0.000  0.000  0.000  0.006
  2  0.000  0.002  0.004  0.000  0.000  0.000  0.000  0.000  0.000  0.006
tot  0.000  0.005  0.008  0.000  0.000  0.000  0.000  0.000  0.000  0.012
 
band  20 # energy   29.37922424 # occ.  0.00000000
 
ion      s     py     pz     px    dxy    dyz    dz2    dxz    dx2    tot
  1  0.000  0.002  0.002  0.002  0.000  0.000  0.000  0.000  0.000  0.006
  2  0.000  0.002  0.002  0.002  0.000  0.000  0.000  0.000  0.000  0.006
tot  0.000  0.005  0.003  0.004  0.000  0.000  0.000  0.000  0.000  0.012
 
band  21 # energy   31.88166134 # occ.  0.00000000
 
ion      s     py     pz     px    dxy    dyz    dz2    dxz    dx2    tot