<?xml version="1.0" encoding="ISO-8859-1"?>
<modeling>
 <generator>
  <i name="program" type="string">vasp </i>
  <i name="version" type="string">5.4.1  </i>
  <i name="subversion" type="string">24Jun15 (build Feb 01 2016 23:38:11) complex                          parallel </i>
  <i name="platform" type="string">IFC91_impi </i>
  <i name="date" type="string">2016 08 03 </i>
  <i name="time" type="string">15:40:47 </i>
 </generator>
 <incar>
  <i type="string" name="PREC">accurate</i>
  <i type="string" name="ALGO"> Fast</i>
  <i type="int" name="ISPIN">     2</i>
  <i type="int" name="ICHARG">     1</i>
  <i type="int" name="NELM">   100</i>
  <i type="int" name="IBRION">     2</i>
  <i name="EDIFF">      0.00010000</i>
  <i type="int" name="NSW">    99</i>
  <i type="int" name="ISIF">     3</i>
  <i name="ENCUT">    520.00000000</i>
  <v name="MAGMOM">      0.60000000      0.60000000</v>
  <i type="string" name="LREAL"> Auto</i>
  <i type="int" name="ISMEAR">    -5</i>
  <i name="SIGMA">      0.05000000</i>
  <i type="logical" name="LWAVE"> F  </i>
  <i type="logical" name="LORBIT"> F  </i>
  <v type="int" name="KPOINT_BSE">    -1     0     0     0</v>
  <i type="int" name="NELM">   100</i>
 </incar>
 <kpoints>
  <generation param="Gamma">
   <v type="int" name="divisions">       8        8        8 </v>
   <v name="usershift">      0.00000000       0.00000000       0.00000000 </v>
   <v name="genvec1">      0.12500000       0.00000000      -0.00000000 </v>
   <v name="genvec2">      0.00000000       0.12500000       0.00000000 </v>
   <v name="genvec3">      0.00000000       0.00000000       0.12500000 </v>
   <v name="shift">      0.00000000       0.00000000       0.00000000 </v>
  </generation>
  <varray name="kpointlist" >
   <v>       0.00000000       0.00000000       0.00000000 </v>
   <v>       0.12500000       0.00000000      -0.00000000 </v>
   <v>       0.25000000       0.00000000      -0.00000000 </v>
   <v>       0.37500000       0.00000000       0.00000000 </v>
   <v>       0.50000000       0.00000000      -0.00000000 </v>
   <v>       0.00000000       0.12500000       0.00000000 </v>
   <v>       0.25000000       0.12500000       0.00000000 </v>
   <v>       0.37500000       0.12500000       0.00000000 </v>
   <v>       0.50000000       0.12500000      -0.00000000 </v>
   <v>      -0.37500000       0.12500000      -0.00000000 </v>
   <v>      -0.25000000       0.12500000       0.00000000 </v>
   <v>      -0.12500000       0.12500000      -0.00000000 </v>
   <v>       0.00000000       0.25000000       0.00000000 </v>
   <v>       0.50000000       0.25000000       0.00000000 </v>
   <v>      -0.37500000       0.25000000       0.00000000 </v>
   <v>      -0.25000000       0.25000000      -0.00000000 </v>
   <v>      -0.12500000       0.25000000       0.00000000 </v>
   <v>       0.00000000       0.37500000      -0.00000000 </v>
   <v>      -0.25000000       0.37500000       0.00000000 </v>
   <v>      -0.12500000       0.37500000       0.00000000 </v>
   <v>       0.00000000       0.50000000       0.00000000 </v>
   <v>       0.37500000       0.12500000       0.12500000 </v>
   <v>       0.50000000       0.12500000       0.12500000 </v>
   <v>      -0.37500000       0.12500000       0.12500000 </v>
   <v>      -0.37500000       0.25000000       0.12500000 </v>
   <v>      -0.25000000       0.25000000       0.12500000 </v>
   <v>      -0.12500000       0.25000000       0.12500000 </v>
   <v>      -0.12500000       0.37500000       0.12500000 </v>
   <v>      -0.25000000       0.25000000       0.25000000 </v>
  </varray>
  <varray name="weights" >
   <v>       0.00195312 </v>
   <v>       0.01562500 </v>
   <v>       0.01562500 </v>
   <v>       0.01562500 </v>
   <v>       0.00781250 </v>
   <v>       0.01171875 </v>
   <v>       0.02343750 </v>
   <v>       0.04687500 </v>
   <v>       0.04687500 </v>
   <v>       0.04687500 </v>
   <v>       0.04687500 </v>
   <v>       0.04687500 </v>
   <v>       0.01171875 </v>
   <v>       0.02343750 </v>
   <v>       0.04687500 </v>
   <v>       0.04687500 </v>
   <v>       0.04687500 </v>
   <v>       0.01171875 </v>
   <v>       0.02343750 </v>
   <v>       0.04687500 </v>
   <v>       0.00585938 </v>
   <v>       0.04687500 </v>
   <v>       0.09375000 </v>
   <v>       0.04687500 </v>
   <v>       0.04687500 </v>
   <v>       0.09375000 </v>
   <v>       0.04687500 </v>
   <v>       0.02343750 </v>
   <v>       0.01171875 </v>
  </varray>
  <varray name="tetrahedronlist"  type="int" >
   <v type="int" >        4        1        2        2        2 </v>
   <v type="int" >        8        1        2        2        6 </v>
   <v type="int" >        8        2        2        6       12 </v>
   <v type="int" >        4        2        2        2        6 </v>
   <v type="int" >        8        2        2        6        7 </v>
   <v type="int" >        8        2        2        7       12 </v>
   <v type="int" >        8        2        3        6        7 </v>
   <v type="int" >        4        2        6        7        7 </v>
   <v type="int" >        8        3        6        7       12 </v>
   <v type="int" >        8        6        7       12       12 </v>
   <v type="int" >        4        6        7        7       12 </v>
   <v type="int" >        8        3        4        8       12 </v>
   <v type="int" >       16        3        7        8       12 </v>
   <v type="int" >       12        7        8       12       12 </v>
   <v type="int" >        8        4        8       11       12 </v>
   <v type="int" >       16        8       11       12       22 </v>
   <v type="int" >        8        8       12       12       22 </v>
   <v type="int" >        8        4        5        9       11 </v>
   <v type="int" >       16        4        8        9       11 </v>
   <v type="int" >        8        8        9       11       22 </v>
   <v type="int" >        8        5        9       10       11 </v>
   <v type="int" >       16        9       10       11       23 </v>
   <v type="int" >        8        9       11       22       23 </v>
   <v type="int" >       12        4        5       10       10 </v>
   <v type="int" >       16        5        9       10       10 </v>
   <v type="int" >        8        9       10       10       23 </v>
   <v type="int" >       12        4        9       10       10 </v>
   <v type="int" >       16        9       10       10       24 </v>
   <v type="int" >        8       10       10       23       24 </v>
   <v type="int" >        8        3        4        9       11 </v>
   <v type="int" >       16        4        9       10       11 </v>
   <v type="int" >        8        9       10       11       24 </v>
   <v type="int" >        8        3        8        9       11 </v>
   <v type="int" >       16        8        9       11       23 </v>
   <v type="int" >        8        9       11       23       24 </v>
   <v type="int" >        8        2        3        8       12 </v>
   <v type="int" >       16        3        8       11       12 </v>
   <v type="int" >        8        8       11       12       23 </v>
   <v type="int" >        8        2        7        8       12 </v>
   <v type="int" >       16        7        8       12       22 </v>
   <v type="int" >        8        8       12       22       23 </v>
   <v type="int" >        8        1        2        6        7 </v>
   <v type="int" >       16        2        6        7       12 </v>
   <v type="int" >        8        6        7       12       22 </v>
   <v type="int" >        8        2        6       12       12 </v>
   <v type="int" >        8        6       12       12       13 </v>
   <v type="int" >        8       12       12       13       17 </v>
   <v type="int" >       12        2        7       12       12 </v>
   <v type="int" >        8        7       12       12       22 </v>
   <v type="int" >        8       12       12       17       22 </v>
   <v type="int" >        4        2        3        7        7 </v>
   <v type="int" >       16        2        3        7       12 </v>
   <v type="int" >        8        3        7       12       22 </v>
   <v type="int" >        4        3        7        7       12 </v>
   <v type="int" >        8        3        7        8       22 </v>
   <v type="int" >        8        7        8        8       12 </v>
   <v type="int" >        4        3        8        8       12 </v>
   <v type="int" >        8        8        8       12       22 </v>
   <v type="int" >        4        8        8       11       12 </v>
   <v type="int" >        8        8        9       14       22 </v>
   <v type="int" >        8        8        8       14       22 </v>
   <v type="int" >        8        8       11       14       22 </v>
   <v type="int" >        8        9       14       22       23 </v>
   <v type="int" >        8       14       22       23       23 </v>
   <v type="int" >        8       11       14       22       23 </v>
   <v type="int" >       16        9       10       15       23 </v>
   <v type="int" >       16        9       14       15       23 </v>
   <v type="int" >       12       14       15       23       23 </v>
   <v type="int" >       24       10       15       23       24 </v>
   <v type="int" >       16       15       23       24       25 </v>
   <v type="int" >        8       15       23       23       25 </v>
   <v type="int" >        8       10       11       16       24 </v>
   <v type="int" >       16       10       15       16       24 </v>
   <v type="int" >        8       15       16       24       25 </v>
   <v type="int" >        8       11       16       23       24 </v>
   <v type="int" >       16       16       23       24       26 </v>
   <v type="int" >       16       16       24       25       26 </v>
   <v type="int" >        8       11       12       17       23 </v>
   <v type="int" >       16       11       16       17       23 </v>
   <v type="int" >        8       16       17       23       26 </v>
   <v type="int" >        8       12       17       22       23 </v>
   <v type="int" >       16       17       22       23       27 </v>
   <v type="int" >        8       17       23       26       27 </v>
   <v type="int" >        8        6       12       13       22 </v>
   <v type="int" >       16       12       13       17       22 </v>
   <v type="int" >        8       13       17       22       27 </v>
   <v type="int" >        8       12       13       17       17 </v>
   <v type="int" >        8       13       17       17       18 </v>
   <v type="int" >        8       17       17       18       20 </v>
   <v type="int" >        8       12       17       17       22 </v>
   <v type="int" >        8       17       17       22       27 </v>
   <v type="int" >        8       17       17       20       27 </v>
   <v type="int" >        8        3       11       12       22 </v>
   <v type="int" >       16       11       12       17       22 </v>
   <v type="int" >        8       11       17       22       27 </v>
   <v type="int" >        8        3        8       11       22 </v>
   <v type="int" >       16        8       11       22       23 </v>
   <v type="int" >        8       11       22       23       27 </v>
   <v type="int" >        4        3        4        8        8 </v>
   <v type="int" >       16        3        4        8       11 </v>
   <v type="int" >        8        4        8       11       23 </v>
   <v type="int" >        4        4        8        8       11 </v>
   <v type="int" >        8        4        8        9       23 </v>
   <v type="int" >        8        8        9       11       14 </v>
   <v type="int" >        4        4        9        9       11 </v>
   <v type="int" >        8        9       11       14       23 </v>
   <v type="int" >        4        9        9       10       11 </v>
   <v type="int" >        8       14       15       15       23 </v>
   <v type="int" >        8       15       15       23       25 </v>
   <v type="int" >        8       15       16       19       25 </v>
   <v type="int" >        8       15       15       19       25 </v>
   <v type="int" >        8       15       19       24       25 </v>
   <v type="int" >        8       16       19       25       26 </v>
   <v type="int" >        8       19       25       26       26 </v>
   <v type="int" >        8       19       24       25       26 </v>
   <v type="int" >        8       16       17       20       26 </v>
   <v type="int" >       16       16       19       20       26 </v>
   <v type="int" >       12       19       20       26       26 </v>
   <v type="int" >        8       17       20       26       27 </v>
   <v type="int" >       16       20       26       27       28 </v>
   <v type="int" >       16       20       26       26       28 </v>
   <v type="int" >        8       13       17       18       27 </v>
   <v type="int" >       16       17       18       20       27 </v>
   <v type="int" >        8       18       20       27       28 </v>
   <v type="int" >        8       17       18       20       20 </v>
   <v type="int" >        8       18       20       20       21 </v>
   <v type="int" >       12       20       20       20       21 </v>
   <v type="int" >        8       17       20       20       27 </v>
   <v type="int" >        8       20       20       27       28 </v>
   <v type="int" >        8       20       20       20       28 </v>
   <v type="int" >        8       11       16       17       27 </v>
   <v type="int" >       16       16       17       20       27 </v>
   <v type="int" >        8       16       20       27       28 </v>
   <v type="int" >        8       11       16       23       27 </v>
   <v type="int" >       16       16       23       26       27 </v>
   <v type="int" >        8       16       26       27       28 </v>
   <v type="int" >        8        4       10       11       23 </v>
   <v type="int" >       16       10       11       16       23 </v>
   <v type="int" >        8       10       16       23       26 </v>
   <v type="int" >        8        4        9       10       23 </v>
   <v type="int" >       16        9       10       23       24 </v>
   <v type="int" >        8       10       23       24       26 </v>
   <v type="int" >        4        4        5        9        9 </v>
   <v type="int" >       16        4        5        9       10 </v>
   <v type="int" >       16        5        9       10       24 </v>
   <v type="int" >       12        5        9        9       10 </v>
   <v type="int" >        8        9       10       10       15 </v>
   <v type="int" >        4        5       10       10       10 </v>
   <v type="int" >        8       10       10       15       24 </v>
   <v type="int" >        4        9       10       10       10 </v>
   <v type="int" >        8       15       16       19       24 </v>
   <v type="int" >       16        9       10       16       24 </v>
   <v type="int" >        8       16       19       24       26 </v>
   <v type="int" >        8        9       16       23       24 </v>
   <v type="int" >        8       19       20       20       26 </v>
   <v type="int" >        8       16       20       23       26 </v>
   <v type="int" >       16       20       20       26       28 </v>
   <v type="int" >        8       20       23       26       27 </v>
   <v type="int" >        8       18       20       21       28 </v>
   <v type="int" >       16       20       20       21       28 </v>
   <v type="int" >        8       20       21       27       28 </v>
   <v type="int" >        8       16       19       20       28 </v>
   <v type="int" >        8       19       20       20       28 </v>
   <v type="int" >        8       19       20       27       28 </v>
   <v type="int" >        8       16       19       26       28 </v>
   <v type="int" >        8       19       26       26       28 </v>
   <v type="int" >        8       19       26       27       28 </v>
   <v type="int" >        8       10       15       16       26 </v>
   <v type="int" >       16       15       16       19       26 </v>
   <v type="int" >       12       15       19       26       26 </v>
   <v type="int" >        8       10       15       24       26 </v>
   <v type="int" >       16       15       24       25       26 </v>
   <v type="int" >       16       15       25       26       26 </v>
   <v type="int" >       16        9       10       15       24 </v>
   <v type="int" >        8        9       15       24       25 </v>
   <v type="int" >        8        9       23       24       25 </v>
   <v type="int" >        8        9       10       11       16 </v>
   <v type="int" >        4        4        9       11       11 </v>
   <v type="int" >        8        9       11       16       23 </v>
   <v type="int" >        4        8        9       11       11 </v>
   <v type="int" >        8       16       17       20       23 </v>
   <v type="int" >        8        8       11       17       23 </v>
   <v type="int" >        8       17       20       23       27 </v>
   <v type="int" >        8        8       17       22       23 </v>
   <v type="int" >        8       18       20       21       27 </v>
   <v type="int" >        8       17       18       22       27 </v>
   <v type="int" >        8       16       19       20       27 </v>
   <v type="int" >        8       16       17       22       27 </v>
   <v type="int" >        8       16       19       26       27 </v>
   <v type="int" >        8       16       22       23       27 </v>
   <v type="int" >        8       15       15       19       26 </v>
   <v type="int" >        8       15       16       23       26 </v>
   <v type="int" >        8       15       15       25       26 </v>
   <v type="int" >       24       15       23       24       26 </v>
   <v type="int" >        8        9       14       15       25 </v>
   <v type="int" >        8       14       15       15       25 </v>
   <v type="int" >        8       14       15       24       25 </v>
   <v type="int" >        8        9       14       23       25 </v>
   <v type="int" >        8       14       23       23       25 </v>
   <v type="int" >        8       14       23       24       25 </v>
   <v type="int" >       16        8        9       14       23 </v>
   <v type="int" >       12        8       14       23       23 </v>
   <v type="int" >        8        8       22       23       23 </v>
   <v type="int" >        4        3        4       11       11 </v>
   <v type="int" >        4        3        8       11       11 </v>
   <v type="int" >        8        8       11       12       17 </v>
   <v type="int" >        4        3        8       12       12 </v>
   <v type="int" >        8        8       12       17       22 </v>
   <v type="int" >        8       13       17       18       22 </v>
   <v type="int" >        8        7       12       13       22 </v>
   <v type="int" >        8       11       16       17       22 </v>
   <v type="int" >        8        7       11       12       22 </v>
   <v type="int" >        8       11       16       22       23 </v>
   <v type="int" >        8        7        8       11       22 </v>
   <v type="int" >        8       10       15       16       23 </v>
   <v type="int" >        8        8       10       11       23 </v>
   <v type="int" >        8        8        9       10       23 </v>
   <v type="int" >        8        9       14       15       24 </v>
   <v type="int" >        8        9        9       10       24 </v>
   <v type="int" >        8        9       14       23       24 </v>
   <v type="int" >        8        8        8       14       23 </v>
   <v type="int" >        8        8        8       22       23 </v>
   <v type="int" >        8        7        8        8       22 </v>
   <v type="int" >        4        2        3       12       12 </v>
   <v type="int" >        8        6        7       12       13 </v>
   <v type="int" >        4        2        6        6        7 </v>
   <v type="int" >        8        3        7       11       12 </v>
   <v type="int" >        8        3        7        8       11 </v>
   <v type="int" >        8        4        8       10       11 </v>
   <v type="int" >        8        4        8        9       10 </v>
   <v type="int" >        4        1        2        6        6 </v>
   <v type="int" >        4        6       12       12       12 </v>
   <v type="int" >        4       12       12       12       13 </v>
   <v type="int" >        8       12       12       13       22 </v>
   <v type="int" >        8       11       12       13       22 </v>
   <v type="int" >        4       12       13       22       22 </v>
   <v type="int" >        8       11       13       17       22 </v>
   <v type="int" >        8       13       17       17       22 </v>
   <v type="int" >        4       13       17       22       22 </v>
   <v type="int" >        8       10       11       17       23 </v>
   <v type="int" >       16       11       17       22       23 </v>
   <v type="int" >        8       17       17       22       23 </v>
   <v type="int" >        8       10       16       17       23 </v>
   <v type="int" >       16       16       17       23       27 </v>
   <v type="int" >        8       17       17       23       27 </v>
   <v type="int" >       16       10       16       23       24 </v>
   <v type="int" >        8       16       23       24       27 </v>
   <v type="int" >        8        9       15       16       24 </v>
   <v type="int" >       16       15       16       24       26 </v>
   <v type="int" >        8       16       24       26       27 </v>
   <v type="int" >        8        8        9       15       23 </v>
   <v type="int" >       16        9       15       23       24 </v>
   <v type="int" >        8        8       14       15       23 </v>
   <v type="int" >       16       14       15       23       25 </v>
   <v type="int" >       16       15       23       25       26 </v>
   <v type="int" >        8        7        8       14       22 </v>
   <v type="int" >       16        8       14       22       23 </v>
   <v type="int" >        8       14       22       23       25 </v>
   <v type="int" >        4       11       12       22       22 </v>
   <v type="int" >        4       11       17       22       22 </v>
   <v type="int" >        8       17       22       23       23 </v>
   <v type="int" >        4       11       17       23       23 </v>
   <v type="int" >        8       17       23       23       27 </v>
   <v type="int" >        4       16       17       23       23 </v>
   <v type="int" >        8       23       24       25       27 </v>
   <v type="int" >        8       23       23       25       27 </v>
   <v type="int" >        8       16       23       25       27 </v>
   <v type="int" >        8       24       25       26       27 </v>
   <v type="int" >        8       25       26       26       27 </v>
   <v type="int" >        8       16       25       26       27 </v>
   <v type="int" >        8       23       24       26       26 </v>
   <v type="int" >       16       24       25       26       26 </v>
   <v type="int" >       16       25       26       26       26 </v>
   <v type="int" >       16       23       25       26       26 </v>
   <v type="int" >       32       25       26       26       29 </v>
   <v type="int" >       24       26       26       26       29 </v>
   <v type="int" >        8       22       23       25       27 </v>
   <v type="int" >       16       23       25       26       27 </v>
   <v type="int" >        8       25       26       27       29 </v>
   <v type="int" >        8       22       23       23       27 </v>
   <v type="int" >        8       23       23       26       27 </v>
   <v type="int" >        8       23       23       25       26 </v>
   <v type="int" >        4       10       11       23       23 </v>
   <v type="int" >        4       10       16       23       23 </v>
   <v type="int" >        8       16       23       24       25 </v>
   <v type="int" >        4       10       16       24       24 </v>
   <v type="int" >        4       15       16       24       24 </v>
   <v type="int" >        8       15       24       26       26 </v>
   <v type="int" >        8       26       27       28       29 </v>
   <v type="int" >       16       26       26       28       29 </v>
   <v type="int" >       16       25       26       28       29 </v>
   <v type="int" >        8       23       26       26       27 </v>
   <v type="int" >        8       26       26       27       28 </v>
   <v type="int" >        8       26       26       26       28 </v>
   <v type="int" >       16       23       24       25       26 </v>
   <v type="int" >       16       24       25       26       29 </v>
   <v type="int" >        4        9       10       24       24 </v>
   <v type="int" >        4        9       15       24       24 </v>
   <v type="int" >        4        9       15       23       23 </v>
   <v type="int" >        8       25       26       27       28 </v>
   <v type="int" >        8       14       23       25       27 </v>
   <v type="int" >        8       25       25       26       29 </v>
   <v type="int" >        4        8        9       23       23 </v>
   <v type="int" >        8       14       22       23       27 </v>
   <v type="int" >        4        8       14       22       22 </v>
   <v type="int" >        8       24       25       25       26 </v>
   <v type="int" >        4        7        8       22       22 </v>
   <v type="int" >        4       13       17       17       17 </v>
   <v type="int" >        4       17       17       17       18 </v>
   <v type="int" >        8       17       17       18       27 </v>
   <v type="int" >        8       16       17       18       27 </v>
   <v type="int" >        4       17       18       27       27 </v>
   <v type="int" >        8       16       18       20       27 </v>
   <v type="int" >        8       18       20       20       27 </v>
   <v type="int" >        4       18       20       27       27 </v>
   <v type="int" >        8       15       16       20       26 </v>
   <v type="int" >       16       16       20       26       27 </v>
   <v type="int" >        8       20       20       26       27 </v>
   <v type="int" >        8       15       19       20       26 </v>
   <v type="int" >       16       19       20       26       28 </v>
   <v type="int" >        8       14       15       19       25 </v>
   <v type="int" >       16       15       19       25       26 </v>
   <v type="int" >        8       19       25       26       28 </v>
   <v type="int" >        4       16       17       27       27 </v>
   <v type="int" >        4       16       20       27       27 </v>
   <v type="int" >        8       20       26       26       27 </v>
   <v type="int" >        4       16       20       26       26 </v>
   <v type="int" >        8       19       26       28       29 </v>
   <v type="int" >        4       15       16       26       26 </v>
   <v type="int" >        8       19       25       26       29 </v>
   <v type="int" >        4       15       19       25       25 </v>
   <v type="int" >        4       14       15       25       25 </v>
   <v type="int" >        4       18       20       20       20 </v>
   <v type="int" >        8       19       20       21       28 </v>
   <v type="int" >        4       20       21       28       28 </v>
   <v type="int" >        4       19       20       28       28 </v>
  </varray>
  <i name="volumeweight">      0.00032552 </i>
 </kpoints>
 <parameters>
  <separator name="general" >
   <i type="string" name="SYSTEM">unknown system</i>
   <i type="logical" name="LCOMPAT"> F  </i>
  </separator>
  <separator name="electronic" >
   <i type="string" name="PREC">accura</i>
   <i name="ENMAX">    520.00000000</i>
   <i name="ENAUG">    322.06900000</i>
   <i name="EDIFF">      0.00010000</i>
   <i type="int" name="IALGO">    68</i>
   <i type="int" name="IWAVPR">    11</i>
   <i type="int" name="NBANDS">    32</i>
   <i name="NELECT">      8.00000000</i>
   <i type="int" name="TURBO">     0</i>
   <i type="int" name="IRESTART">     0</i>
   <i type="int" name="NREBOOT">     0</i>
   <i type="int" name="NMIN">     0</i>
   <i name="EREF">      0.00000000</i>
   <separator name="electronic smearing" >
    <i type="int" name="ISMEAR">    -5</i>
    <i name="SIGMA">      0.05000000</i>
    <i name="KSPACING">      0.50000000</i>
    <i type="logical" name="KGAMMA"> T  </i>
   </separator>
   <separator name="electronic projectors" >
    <i type="logical" name="LREAL"> T  </i>
    <v name="ROPT">     -0.00025000</v>
    <i type="int" name="LMAXPAW">  -100</i>
    <i type="int" name="LMAXMIX">     2</i>
    <i type="logical" name="NLSPLINE"> F  </i>
   </separator>
   <separator name="electronic startup" >
    <i type="int" name="ISTART">     0</i>
    <i type="int" name="ICHARG">     1</i>
    <i type="int" name="INIWAV">     1</i>
   </separator>
   <separator name="electronic spin" >
    <i type="int" name="ISPIN">     2</i>
    <i type="logical" name="LNONCOLLINEAR"> F  </i>
    <v name="MAGMOM">      0.60000000      0.60000000</v>
    <i name="NUPDOWN">     -1.00000000</i>
    <i type="logical" name="LSORBIT"> F  </i>
    <v name="SAXIS">      0.00000000      0.00000000      1.00000000</v>
    <i type="logical" name="LSPIRAL"> F  </i>
    <v name="QSPIRAL">      0.00000000      0.00000000      0.00000000</v>
    <i type="logical" name="LZEROZ"> F  </i>
   </separator>
   <separator name="electronic exchange-correlation" >
    <i type="logical" name="LASPH"> F  </i>
    <i type="logical" name="LMETAGGA"> F  </i>
   </separator>
   <separator name="electronic convergence" >
    <i type="int" name="NELM">   100</i>
    <i type="int" name="NELMDL">    -5</i>
    <i type="int" name="NELMIN">     2</i>
    <i name="ENINI">    520.00000000</i>
    <separator name="electronic convergence detail" >
     <i type="logical" name="LDIAG"> T  </i>
     <i type="logical" name="LSUBROT"> F  </i>
     <i name="WEIMIN">      0.00100000</i>
     <i name="EBREAK">      0.00000078</i>
     <i name="DEPER">      0.30000000</i>
     <i type="int" name="NRMM">     4</i>
     <i name="TIME">      0.40000000</i>
    </separator>
   </separator>
   <separator name="electronic mixer" >
    <i name="AMIX">      0.40000000</i>
    <i name="BMIX">      1.00000000</i>
    <i name="AMIN">      0.10000000</i>
    <i name="AMIX_MAG">      1.60000000</i>
    <i name="BMIX_MAG">      1.00000000</i>
    <separator name="electronic mixer details" >
     <i type="int" name="IMIX">     4</i>
     <i type="logical" name="MIXFIRST"> F  </i>
     <i type="int" name="MAXMIX">   -45</i>
     <i name="WC">    100.00000000</i>
     <i type="int" name="INIMIX">     1</i>
     <i type="int" name="MIXPRE">     1</i>
     <i type="int" name="MREMOVE">     5</i>
    </separator>
   </separator>
   <separator name="electronic dipolcorrection" >
    <i type="logical" name="LDIPOL"> F  </i>
    <i type="logical" name="LMONO"> F  </i>
    <i type="int" name="IDIPOL">     0</i>
    <i name="EPSILON">      1.00000000</i>
    <v name="DIPOL">   -100.00000000   -100.00000000   -100.00000000</v>
    <i name="EFIELD">      0.00000000</i>
   </separator>
  </separator>
  <separator name="grids" >
   <i type="int" name="NGX">    30</i>
   <i type="int" name="NGY">    30</i>
   <i type="int" name="NGZ">    30</i>
   <i type="int" name="NGXF">    60</i>
   <i type="int" name="NGYF">    60</i>
   <i type="int" name="NGZF">    60</i>
   <i type="logical" name="ADDGRID"> F  </i>
  </separator>
  <separator name="ionic" >
   <i type="int" name="NSW">    99</i>
   <i type="int" name="IBRION">     2</i>
   <i type="int" name="ISIF">     3</i>
   <i name="PSTRESS">      0.00000000</i>
   <i name="EDIFFG">      0.00100000</i>
   <i type="int" name="NFREE">     1</i>
   <i name="POTIM">      0.50000000</i>
   <i name="SMASS">     -3.00000000</i>
   <i name="SCALEE">      1.00000000</i>
  </separator>
  <separator name="ionic md" >
   <i name="TEBEG">      0.00010000</i>
   <i name="TEEND">      0.00010000</i>
   <i type="int" name="NBLOCK">     1</i>
   <i type="int" name="KBLOCK">    99</i>
   <i type="int" name="NPACO">   256</i>
   <i name="APACO">     16.00000000</i>
  </separator>
  <separator name="symmetry" >
   <i type="int" name="ISYM">     2</i>
   <i name="SYMPREC">      0.00001000</i>
  </separator>
  <separator name="dos" >
   <i type="logical" name="LORBIT"> F  </i>
   <v name="RWIGS">     -1.00000000</v>
   <i type="int" name="NEDOS">   301</i>
   <i name="EMIN">     10.00000000</i>
   <i name="EMAX">    -10.00000000</i>
   <i name="EFERMI">      0.00000000</i>
  </separator>
  <separator name="writing" >
   <i type="int" name="NWRITE">     2</i>
   <i type="logical" name="LWAVE"> F  </i>
   <i type="logical" name="LCHARG"> T  </i>
   <i type="logical" name="LPARD"> F  </i>
   <i type="logical" name="LVTOT"> F  </i>
   <i type="logical" name="LVHAR"> F  </i>
   <i type="logical" name="LELF"> F  </i>
   <i type="logical" name="LOPTICS"> F  </i>
   <v name="STM">      0.00000000      0.00000000      0.00000000      0.00000000      0.00000000      0.00000000      0.00000000</v>
  </separator>
  <separator name="performance" >
   <i type="int" name="NPAR">    32</i>
   <i type="int" name="NSIM">     4</i>
   <i type="int" name="NBLK">    -1</i>
   <i type="logical" name="LPLANE"> T  </i>
   <i type="logical" name="LSCALAPACK"> F  </i>
   <i type="logical" name="LSCAAWARE"> F  </i>
   <i type="logical" name="LSCALU"> F  </i>
   <i type="logical" name="LASYNC"> F  </i>
   <i type="logical" name="LORBITALREAL"> F  </i>
  </separator>
  <separator name="miscellaneous" >
   <i type="int" name="IDIOT">     3</i>
   <i type="logical" name="LMUSIC"> F  </i>
   <v name="POMASS">     28.08500000</v>
   <v name="DARWINR">      0.00000000</v>
   <v name="DARWINV">      1.00000000</v>
   <i type="logical" name="LCORR"> T  </i>
  </separator>
  <i type="logical" name="GGA_COMPAT"> T  </i>
  <i type="logical" name="LBERRY"> F  </i>
  <i type="int" name="ICORELEVEL">     0</i>
  <i type="logical" name="LDAU"> F  </i>
  <i type="int" name="I_CONSTRAINED_M">     0</i>
  <separator name="electronic exchange-correlation" >
   <i type="string" name="GGA">--</i>
   <i type="int" name="VOSKOWN">     0</i>
   <i type="logical" name="LHFCALC"> F  </i>
   <i type="string" name="PRECFOCK"></i>
   <i type="logical" name="LSYMGRAD"> F  </i>
   <i type="logical" name="LHFONE"> F  </i>
   <i type="logical" name="LRHFCALC"> F  </i>
   <i type="logical" name="LTHOMAS"> F  </i>
   <i type="logical" name="LMODELHF"> F  </i>
   <i name="ENCUT4O">     -1.00000000</i>
   <i type="int" name="EXXOEP">     0</i>
   <i type="int" name="FOURORBIT">     0</i>
   <i name="AEXX">      0.00000000</i>
   <i name="HFALPHA">      0.00000000</i>
   <i name="MCALPHA">      0.00000000</i>
   <i name="ALDAX">      1.00000000</i>
   <i name="AGGAX">      1.00000000</i>
   <i name="ALDAC">      1.00000000</i>
   <i name="AGGAC">      1.00000000</i>
   <i type="int" name="NKREDX">     1</i>
   <i type="int" name="NKREDY">     1</i>
   <i type="int" name="NKREDZ">     1</i>
   <i type="logical" name="SHIFTRED"> F  </i>
   <i type="logical" name="ODDONLY"> F  </i>
   <i type="logical" name="EVENONLY"> F  </i>
   <i type="int" name="LMAXFOCK">     0</i>
   <i type="int" name="NMAXFOCKAE">     0</i>
   <i type="logical" name="LFOCKAEDFT"> F  </i>
   <i name="HFSCREEN">      0.00000000</i>
   <i name="HFSCREENC">      0.00000000</i>
   <i type="int" name="NBANDSGWLOW">     0</i>
  </separator>
  <separator name="vdW DFT" >
   <i type="logical" name="LUSE_VDW"> F  </i>
   <i name="Zab_VDW">     -0.84910000</i>
   <i name="PARAM1">      0.12340000</i>
   <i name="PARAM2">      1.00000000</i>
   <i name="PARAM3">      0.00000000</i>
  </separator>
  <separator name="model GW" >
   <i type="int" name="MODEL_GW">     0</i>
   <i name="MODEL_EPS0">     12.01343768</i>
   <i name="MODEL_ALPHA">      1.00000000</i>
  </separator>
  <separator name="linear response parameters" >
   <i type="logical" name="LEPSILON"> F  </i>
   <i type="logical" name="LRPA"> F  </i>
   <i type="logical" name="LNABLA"> F  </i>
   <i type="logical" name="LVEL"> F  </i>
   <i type="int" name="KINTER">     0</i>
   <i name="CSHIFT">      0.10000000</i>
   <i name="OMEGAMAX">     -1.00000000</i>
   <i name="DEG_THRESHOLD">      0.00200000</i>
  </separator>
  <separator name="orbital magnetization" >
   <i type="logical" name="NUCIND"> F  </i>
   <v name="MAGPOS">      0.00000000      0.00000000      0.00000000</v>
   <i type="logical" name="LNICSALL"> T  </i>
   <i type="logical" name="ORBITALMAG"> F  </i>
   <i type="logical" name="LMAGBLOCH"> F  </i>
   <i type="logical" name="LCHIMAG"> F  </i>
   <i type="logical" name="LGAUGE"> T  </i>
   <i type="int" name="MAGATOM">     0</i>
   <v name="MAGDIPOL">      0.00000000      0.00000000      0.00000000</v>
   <v name="AVECCONST">      0.00000000      0.00000000      0.00000000</v>
  </separator>
  <separator name="response functions" >
   <i type="logical" name="LADDER"> F  </i>
   <i type="logical" name="LFXC"> F  </i>
   <i type="logical" name="LHARTREE"> T  </i>
   <i type="int" name="IBSE">     0</i>
   <v type="int" name="KPOINT">    -1     0     0     0</v>
   <i type="logical" name="LTCTE"> F  </i>
   <i type="logical" name="LTETE"> F  </i>
   <i type="logical" name="LTRIPLET"> F  </i>
   <i type="logical" name="LFXCEPS"> F  </i>
   <i type="logical" name="LFXHEG"> F  </i>
   <i type="int" name="NATURALO">     0</i>
   <i type="logical" name="L2ORDER"> F  </i>
   <i type="logical" name="LUSEW"> F  </i>
   <i name="ENCUTGW">     -2.00000000</i>
   <i name="ENCUTGWSOFT">     -2.00000000</i>
   <i name="ENCUTLF">     -1.00000000</i>
   <i type="int" name="LMAXMP2">    -1</i>
   <i name="SCISSOR">      0.00000000</i>
   <i type="int" name="NOMEGA">     0</i>
   <i type="int" name="NOMEGAR">     0</i>
   <i type="int" name="NBANDSGW">    -1</i>
   <i type="int" name="NBANDSO">    -1</i>
   <i type="int" name="NBANDSV">    -1</i>
   <i type="int" name="NELM">   100</i>
   <i type="int" name="NELMHF">     1</i>
   <i type="int" name="DIM">     3</i>
   <i type="int" name="ANTIRES">     0</i>
   <i name="OMEGAMAX">    -30.00000000</i>
   <i name="OMEGAMIN">    -30.00000000</i>
   <i name="OMEGATL">   -200.00000000</i>
   <i type="int" name="OMEGAGRID">     0</i>
   <i name="CSHIFT">     -0.10000000</i>
   <i type="logical" name="SELFENERGY"> F  </i>
   <i type="logical" name="LSPECTRAL"> F  </i>
   <i type="logical" name="LSPECTRALGW"> F  </i>
   <i type="logical" name="LSINGLES"> F  </i>
   <i type="logical" name="LFERMIGW"> F  </i>
   <i type="logical" name="ODDONLYGW"> F  </i>
   <i type="logical" name="EVENONLYGW"> F  </i>
   <i type="int" name="NKREDLFX">     1</i>
   <i type="int" name="NKREDLFY">     1</i>
   <i type="int" name="NKREDLFZ">     1</i>
   <i type="int" name="MAXMEM">  1800</i>
   <i type="int" name="TELESCOPE">     0</i>
   <i type="int" name="TAUPAR">     1</i>
   <i type="int" name="OMEGAPAR">    -1</i>
   <i name="LAMBDA">      1.00000000</i>
  </separator>
  <separator name="External order field" >
   <i name="OFIELD_KAPPA">      0.00000000</i>
   <v name="OFIELD_K">      0.00000000      0.00000000      0.00000000</v>
   <i name="OFIELD_Q6_NEAR">      0.00000000</i>
   <i name="OFIELD_Q6_FAR">      0.00000000</i>
   <i name="OFIELD_A">      0.00000000</i>
  </separator>
 </parameters>
 <atominfo>
  <atoms>       2 </atoms>
  <types>       1 </types>
  <array name="atoms" >
   <dimension dim="1">ion</dimension>
   <field type="string">element</field>
   <field type="int">atomtype</field>
   <set>
    <rc><c>Si</c><c>   1</c></rc>
    <rc><c>Si</c><c>   1</c></rc>
   </set>
  </array>
  <array name="atomtypes" >
   <dimension dim="1">type</dimension>
   <field type="int">atomspertype</field>
   <field type="string">element</field>
   <field>mass</field>
   <field>valence</field>
   <field type="string">pseudopotential</field>
   <set>
    <rc><c>   2</c><c>Si</c><c>     28.08500000</c><c>      4.00000000</c><c> PAW_PBE Si 05Jan2001                   </c></rc>
   </set>
  </array>
 </atominfo>
 <structure name="initialpos" >
  <crystal>
   <varray name="basis" >
    <v>       3.84019800       0.00000000       0.00000000 </v>
    <v>       1.92009900       3.32571000       0.00000000 </v>
    <v>       0.00000000      -2.21713800       3.13550900 </v>
   </varray>
   <i name="volume">     40.04479227 </i>
   <varray name="rec_basis" >
    <v>       0.26040324      -0.15034384      -0.10630907 </v>
    <v>       0.00000000       0.30068767       0.21261813 </v>
    <v>       0.00000000       0.00000000       0.31892749 </v>
   </varray>
  </crystal>
  <varray name="positions" >
   <v>       0.00000000       0.00000000       0.00000000 </v>
   <v>       0.75000000       0.50000000       0.75000000 </v>
  </varray>
 </structure>
 <calculation>
  <scstep>
   <time name="dav">    3.04    3.07</time>
   <time name="total">    3.23    3.28</time>
   <energy>
    <i name="alphaZ">      3.36254244 </i>
    <i name="ewald">   -228.52729335 </i>
    <i name="hartreedc">    -11.00822102 </i>
    <i name="XCdc">    -18.52396975 </i>
    <i name="pawpsdc">     65.91709927 </i>
    <i name="pawaedc">    -30.72587073 </i>
    <i name="eentropy">      0.00000000 </i>
    <i name="bandstr">      7.76519986 </i>
    <i name="atom">    206.13270273 </i>
    <i name="e_fr_energy">     -5.60781055 </i>
    <i name="e_wo_entrp">     -5.60781055 </i>
    <i name="e_0_energy">     -5.60781055 </i>
   </energy>
  </scstep>
  <scstep>
   <time name="dav">    4.40    4.40</time>
   <time name="total">    4.41    4.42</time>
   <energy>
    <i name="e_fr_energy">    -10.82699787 </i>
    <i name="e_wo_entrp">    -10.82699787 </i>
    <i name="e_0_energy">    -10.82699787 </i>
   </energy>
  </scstep>
  <scstep>
   <time name="dav">    2.90    2.90</time>
   <time name="total">    2.91    2.92</time>
   <energy>
    <i name="e_fr_energy">    -10.83559505 </i>
    <i name="e_wo_entrp">    -10.83559505 </i>
    <i name="e_0_energy">    -10.83559505 </i>
   </energy>
  </scstep>
  <scstep>
   <time name="dav">    5.95    5.96</time>
   <time name="total">    5.96    5.97</time>
   <energy>
    <i name="e_fr_energy">    -10.83560217 </i>
    <i name="e_wo_entrp">    -10.83560217 </i>
    <i name="e_0_energy">    -10.83560217 </i>
   </energy>
  </scstep>
  <scstep>
   <time name="dav">    2.90    2.90</time>
   <time name="total">    2.98    2.99</time>
   <energy>
    <i name="e_fr_energy">    -10.83560217 </i>
    <i name="e_wo_entrp">    -10.83560217 </i>
    <i name="e_0_energy">    -10.83560217 </i>
   </energy>
  </scstep>
  <scstep>
   <time name="diag">    0.49    0.51</time>
   <time name="diis">    0.25    0.26</time>
   <time name="orth">    0.30    0.30</time>
   <time name="total">    1.25    1.27</time>
   <energy>
    <i name="e_fr_energy">    -10.88536499 </i>
    <i name="e_wo_entrp">    -10.88536499 </i>
    <i name="e_0_energy">    -10.88536499 </i>
   </energy>
  </scstep>
  <scstep>
   <time name="diag">    0.47    0.47</time>
   <time name="diis">    0.27    0.27</time>
   <time name="orth">    0.30    0.30</time>
   <time name="total">    1.25    1.25</time>
   <energy>
    <i name="e_fr_energy">    -10.82466283 </i>
    <i name="e_wo_entrp">    -10.82466283 </i>
    <i name="e_0_energy">    -10.82466283 </i>
   </energy>
  </scstep>
  <scstep>
   <time name="diag">    0.47    0.47</time>
   <time name="diis">    0.27    0.27</time>
   <time name="orth">    0.30    0.30</time>
   <time name="total">    1.25    1.25</time>
   <energy>
    <i name="e_fr_energy">    -10.84227967 </i>
    <i name="e_wo_entrp">    -10.84227967 </i>
    <i name="e_0_energy">    -10.84227967 </i>
   </energy>
  </scstep>
  <scstep>
   <time name="diag">    0.47    0.47</time>
   <time name="diis">    0.27    0.27</time>
   <time name="orth">    0.30    0.30</time>
   <time name="total">    1.25    1.25</time>
   <energy>
    <i name="e_fr_energy">    -10.84189143 </i>
    <i name="e_wo_entrp">    -10.84189143 </i>
    <i name="e_0_energy">    -10.84189143 </i>
   </energy>
  </scstep>
  <scstep>
   <time name="diag">    0.47    0.47</time>
   <time name="diis">    0.27    0.27</time>
   <time name="orth">    0.30    0.31</time>
   <time name="total">    1.19    1.20</time>
   <energy>
    <i name="alphaZ">      3.36254244 </i>
    <i name="ewald">   -228.52729335 </i>
    <i name="hartreedc">    -14.91796170 </i>
    <i name="XCdc">    -17.96496153 </i>
    <i name="pawpsdc">     74.30270070 </i>
    <i name="pawaedc">    -39.33956742 </i>
    <i name="eentropy">      0.00000000 </i>
    <i name="bandstr">      6.11000926 </i>
    <i name="atom">    206.13270273 </i>
    <i name="e_fr_energy">    -10.84182886 </i>
    <i name="e_wo_entrp">    -10.84182886 </i>
    <i name="e_0_energy">    -10.84182886 </i>
   </energy>
  </scstep>
  <structure>
   <crystal>
    <varray name="basis" >
     <v>       3.84019800       0.00000000       0.00000000 </v>
     <v>       1.92009900       3.32571000       0.00000000 </v>
     <v>       0.00000000      -2.21713800       3.13550900 </v>
    </varray>
    <i name="volume">     40.04479227 </i>
    <varray name="rec_basis" >
     <v>       0.26040324      -0.15034384      -0.10630907 </v>
     <v>       0.00000000       0.30068767       0.21261813 </v>
     <v>       0.00000000       0.00000000       0.31892749 </v>
    </varray>
   </crystal>
   <varray name="positions" >
    <v>       0.00000000       0.00000000       0.00000000 </v>
    <v>       0.75000000       0.50000000       0.75000000 </v>
   </varray>
  </structure>
  <varray name="forces" >
   <v>      -0.00000000      -0.00000000      -0.00000000 </v>
   <v>       0.00000000       0.00000000       0.00000000 </v>
  </varray>
  <varray name="stress" >
   <v>      19.57173826      -0.00000000      -0.00000000 </v>
   <v>       0.00000000      19.57174975       0.00001248 </v>
   <v>       0.00000000       0.00001248      19.57174403 </v>
  </varray>
  <energy>
   <i name="e_fr_energy">    -10.84182886 </i>
   <i name="e_wo_entrp">    -10.84182886 </i>
   <i name="e_0_energy">      0.00000000 </i>
  </energy>
  <time name="totalsc">   27.33   27.50</time>
 </calculation>
 <calculation>
  <scstep>
   <time name="dav">    3.23    3.24</time>
   <time name="total">    3.43    3.44</time>
   <energy>
    <i name="alphaZ">      3.24626749 </i>
    <i name="ewald">   -225.86221629 </i>
    <i name="hartreedc">    -14.75313883 </i>
    <i name="XCdc">    -18.13641055 </i>
    <i name="pawpsdc">     74.29486203 </i>
    <i name="pawaedc">    -39.33190834 </i>
    <i name="eentropy">      0.00000000 </i>
    <i name="bandstr">      3.55841864 </i>
    <i name="atom">    206.13270273 </i>
    <i name="e_fr_energy">    -10.85142312 </i>
    <i name="e_wo_entrp">    -10.85142312 </i>
    <i name="e_0_energy">    -10.85142312 </i>
   </energy>
  </scstep>
  <scstep>
   <time name="diag">    0.47    0.47</time>
   <time name="diis">    0.26    0.26</time>
   <time name="orth">    0.30    0.30</time>
   <time name="total">    1.24    1.24</time>
   <energy>
    <i name="e_fr_energy">    -10.84678043 </i>
    <i name="e_wo_entrp">    -10.84678043 </i>
    <i name="e_0_energy">    -10.84678043 </i>
   </energy>
  </scstep>
  <scstep>
   <time name="diag">    0.47    0.47</time>
   <time name="diis">    0.26    0.26</time>
   <time name="orth">    0.30    0.30</time>
   <time name="total">    1.24    1.25</time>
   <energy>
    <i name="e_fr_energy">    -10.84441359 </i>
    <i name="e_wo_entrp">    -10.84441359 </i>
    <i name="e_0_energy">    -10.84441359 </i>
   </energy>
  </scstep>
  <scstep>
   <time name="diag">    0.47    0.47</time>
   <time name="diis">    0.23    0.23</time>
   <time name="orth">    0.30    0.30</time>
   <time name="total">    1.15    1.15</time>
   <energy>
    <i name="alphaZ">      3.24626749 </i>
    <i name="ewald">   -225.86221629 </i>
    <i name="hartreedc">    -15.35451557 </i>
    <i name="XCdc">    -18.12286980 </i>
    <i name="pawpsdc">     73.24434307 </i>
    <i name="pawaedc">    -38.25441243 </i>
    <i name="eentropy">      0.00000000 </i>
    <i name="bandstr">      4.12628194 </i>
    <i name="atom">    206.13270273 </i>
    <i name="e_fr_energy">    -10.84441885 </i>
    <i name="e_wo_entrp">    -10.84441885 </i>
    <i name="e_0_energy">    -10.84441885 </i>
   </energy>
  </scstep>
  <structure>
   <crystal>
    <varray name="basis" >
     <v>       3.88551067      -0.00000000      -0.00000000 </v>
     <v>       1.94275534       3.36495196       0.00000003 </v>
     <v>      -0.00000000      -2.24329926       3.17250664 </v>
    </varray>
    <i name="volume">     41.47911835 </i>
    <varray name="rec_basis" >
     <v>       0.25736643      -0.14859053      -0.10506929 </v>
     <v>       0.00000000       0.29718106       0.21013858 </v>
     <v>       0.00000000      -0.00000000       0.31520816 </v>
    </varray>
   </crystal>
   <varray name="positions" >
    <v>      -0.00000000      -0.00000000      -0.00000000 </v>
    <v>       0.75000000       0.50000000       0.75000000 </v>
   </varray>
  </structure>
  <varray name="forces" >
   <v>       0.00000000      -0.00000000      -0.00000000 </v>
   <v>      -0.00000000       0.00000000       0.00000000 </v>
  </varray>
  <varray name="stress" >
   <v>     -12.48362889       0.00000000       0.00000000 </v>
   <v>       0.00000000     -12.48363639      -0.00000815 </v>
   <v>       0.00000000      -0.00000815     -12.48363266 </v>
  </varray>
  <energy>
   <i name="e_fr_energy">    -10.84441885 </i>
   <i name="e_wo_entrp">    -10.84441885 </i>
   <i name="e_0_energy">      0.00000000 </i>
  </energy>
  <time name="totalsc">    8.27    8.30</time>
 </calculation>
 <calculation>
  <scstep>
   <time name="dav">    3.97    3.98</time>
   <time name="total">    4.17    4.19</time>
   <energy>
    <i name="alphaZ">      3.29187403 </i>
    <i name="ewald">   -226.91500783 </i>
    <i name="hartreedc">    -15.42642326 </i>
    <i name="XCdc">    -18.05683248 </i>
    <i name="pawpsdc">     73.15909885 </i>
    <i name="pawaedc">    -38.16569549 </i>
    <i name="eentropy">      0.00000000 </i>
    <i name="bandstr">      5.13248510 </i>
    <i name="atom">    206.13270273 </i>
    <i name="e_fr_energy">    -10.84779834 </i>
    <i name="e_wo_entrp">    -10.84779834 </i>
    <i name="e_0_energy">    -10.84779834 </i>
   </energy>
  </scstep>
  <scstep>
   <time name="diag">    0.47    0.47</time>
   <time name="diis">    0.26    0.27</time>
   <time name="orth">    0.30    0.30</time>
   <time name="total">    1.24    1.25</time>
   <energy>
    <i name="e_fr_energy">    -10.84707028 </i>
    <i name="e_wo_entrp">    -10.84707028 </i>
    <i name="e_0_energy">    -10.84707028 </i>
   </energy>
  </scstep>
  <scstep>
   <time name="diag">    0.47    0.47</time>
   <time name="diis">    0.27    0.27</time>
   <time name="orth">    0.30    0.30</time>
   <time name="total">    1.25    1.25</time>
   <energy>
    <i name="e_fr_energy">    -10.84671019 </i>
    <i name="e_wo_entrp">    -10.84671019 </i>
    <i name="e_0_energy">    -10.84671019 </i>
   </energy>
  </scstep>
  <scstep>
   <time name="diag">    0.47    0.47</time>
   <time name="diis">    0.18    0.18</time>
   <time name="orth">    0.30    0.30</time>
   <time name="total">    1.11    1.11</time>
   <energy>
    <i name="alphaZ">      3.29187403 </i>
    <i name="ewald">   -226.91500783 </i>
    <i name="hartreedc">    -15.18870889 </i>
    <i name="XCdc">    -18.06138460 </i>
    <i name="pawpsdc">     73.58209020 </i>
    <i name="pawaedc">    -38.59958658 </i>
    <i name="eentropy">      0.00000000 </i>
    <i name="bandstr">      4.91130631 </i>
    <i name="atom">    206.13270273 </i>
    <i name="e_fr_energy">    -10.84671462 </i>
    <i name="e_wo_entrp">    -10.84671462 </i>
    <i name="e_0_energy">    -10.84671462 </i>
   </energy>
  </scstep>
  <structure>
   <crystal>
    <varray name="basis" >
     <v>       3.86748352      -0.00000000      -0.00000000 </v>
     <v>       1.93374176       3.34933997       0.00000002 </v>
     <v>      -0.00000000      -2.23289129       3.15778753 </v>
    </varray>
    <i name="volume">     40.90445509 </i>
    <varray name="rec_basis" >
     <v>       0.25856607      -0.14928314      -0.10555904 </v>
     <v>       0.00000000       0.29856629       0.21111809 </v>
     <v>       0.00000000      -0.00000000       0.31667742 </v>
    </varray>
   </crystal>
   <varray name="positions" >
    <v>      -0.00000000      -0.00000000      -0.00000000 </v>
    <v>       0.75000000       0.50000000       0.75000000 </v>
   </varray>
  </structure>
  <varray name="forces" >
   <v>       0.00000000       0.00000000       0.00000000 </v>
   <v>      -0.00000000      -0.00000000      -0.00000000 </v>
  </varray>
  <varray name="stress" >
   <v>      -0.18216781       0.00000000       0.00000000 </v>
   <v>       0.00000000      -0.18216792      -0.00000012 </v>
   <v>       0.00000000      -0.00000012      -0.18216786 </v>
  </varray>
  <energy>
   <i name="e_fr_energy">    -10.84671462 </i>
   <i name="e_wo_entrp">    -10.84671462 </i>
   <i name="e_0_energy">      0.00000000 </i>
  </energy>
  <time name="totalsc">    8.61    8.64</time>
  <eigenvalues>
   <array>
    <dimension dim="1">band</dimension>
    <dimension dim="2">kpoint</dimension>
    <dimension dim="3">spin</dimension>
    <field>eigene</field>
    <field>occ</field>
    <set>
     <set comment="spin 1">
      <set comment="kpoint 1">
       <r>   -6.1994    1.0000 </r>
       <r>    5.6130    1.0000 </r>
       <r>    5.6130    1.0000 </r>
       <r>    5.6130    1.0000 </r>
       <r>    8.1692    0.0000 </r>
       <r>    8.1692    0.0000 </r>
       <r>    8.1692    0.0000 </r>
       <r>    8.7425    0.0000 </r>
       <r>   13.3216    0.0000 </r>
       <r>   13.3216    0.0000 </r>
       <r>   13.4911    0.0000 </r>
       <r>   16.7939    0.0000 </r>
       <r>   16.7939    0.0000 </r>
       <r>   16.7939    0.0000 </r>
       <r>   20.8876    0.0000 </r>
       <r>   28.4637    0.0000 </r>
       <r>   28.4637    0.0000 </r>
       <r>   28.4637    0.0000 </r>
       <r>   29.5439    0.0000 </r>
       <r>   29.5439    0.0000 </r>
       <r>   30.9880    0.0000 </r>
       <r>   30.9880    0.0000 </r>
       <r>   30.9880    0.0000 </r>
       <r>   34.5189    0.0000 </r>
       <r>   34.5189    0.0000 </r>
       <r>   34.5189    0.0000 </r>
       <r>   40.1018    0.0000 </r>
       <r>   40.1018    0.0000 </r>
       <r>   40.1018    0.0000 </r>
       <r>   43.4076    0.0000 </r>
       <r>   43.8765    0.0000 </r>
       <r>   43.8765    0.0000 </r>
      </set>
      <set comment="kpoint 2">
       <r>   -5.9990    1.0000 </r>
       <r>    4.0223    1.0000 </r>
       <r>    5.3307    1.0000 </r>
       <r>    5.3307    1.0000 </r>
       <r>    8.0548    0.0000 </r>
       <r>    8.5845    0.0000 </r>
       <r>    8.5845    0.0000 </r>
       <r>   10.1426    0.0000 </r>
       <r>   12.8489    0.0000 </r>
       <r>   12.8489    0.0000 </r>
       <r>   14.2664    0.0000 </r>
       <r>   16.2410    0.0000 </r>
       <r>   17.9387    0.0000 </r>
       <r>   17.9387    0.0000 </r>
       <r>   22.1009    0.0000 </r>
       <r>   26.4556    0.0000 </r>
       <r>   26.4557    0.0000 </r>
       <r>   26.7351    0.0000 </r>
       <r>   29.2040    0.0000 </r>
       <r>   29.2040    0.0000 </r>
       <r>   31.5280    0.0000 </r>
       <r>   31.5280    0.0000 </r>
       <r>   32.4279    0.0000 </r>
       <r>   34.7009    0.0000 </r>
       <r>   36.6630    0.0000 </r>
       <r>   36.6630    0.0000 </r>
       <r>   37.7452    0.0000 </r>
       <r>   39.5783    0.0000 </r>
       <r>   39.5783    0.0000 </r>
       <r>   41.9925    0.0000 </r>
       <r>   41.9925    0.0000 </r>
       <r>   43.8238    0.0000 </r>
      </set>
      <set comment="kpoint 3">
       <r>   -5.4148    1.0000 </r>
       <r>    1.7273    1.0000 </r>
       <r>    4.8681    1.0000 </r>
       <r>    4.8681    1.0000 </r>
       <r>    7.5711    0.0000 </r>
       <r>    9.1024    0.0000 </r>
       <r>    9.1024    0.0000 </r>
       <r>   12.3614    0.0000 </r>
       <r>   12.7999    0.0000 </r>
       <r>   12.7999    0.0000 </r>
       <r>   14.5429    0.0000 </r>
       <r>   17.3238    0.0000 </r>
       <r>   20.1246    0.0000 </r>
       <r>   20.1247    0.0000 </r>
       <r>   23.2896    0.0000 </r>
       <r>   23.2896    0.0000 </r>
       <r>   23.3741    0.0000 </r>
       <r>   25.4825    0.0000 </r>
       <r>   29.3792    0.0000 </r>
       <r>   29.3792    0.0000 </r>
       <r>   31.8817    0.0000 </r>
       <r>   31.8817    0.0000 </r>
       <r>   33.1383    0.0000 </r>
       <r>   34.7013    0.0000 </r>
       <r>   35.2112    0.0000 </r>
       <r>   37.1040    0.0000 </r>
       <r>   37.1040    0.0000 </r>
       <r>   38.7447    0.0000 </r>
       <r>   38.7447    0.0000 </r>
       <r>   39.6454    0.0000 </r>
       <r>   39.6454    0.0000 </r>
       <r>   43.3853    0.0000 </r>
      </set>
      <set comment="kpoint 4">
       <r>   -4.5406    1.0000 </r>
       <r>   -0.2564    1.0000 </r>
       <r>    4.5454    1.0000 </r>
       <r>    4.5454    1.0000 </r>
       <r>    7.2066    0.0000 </r>
       <r>    9.0657    0.0000 </r>
       <r>    9.0657    0.0000 </r>
       <r>   13.4508    0.0000 </r>
       <r>   14.1514    0.0000 </r>
       <r>   14.1514    0.0000 </r>
       <r>   15.1230    0.0000 </r>
       <r>   19.2315    0.0000 </r>
       <r>   19.2316    0.0000 </r>
       <r>   19.4725    0.0000 </r>
       <r>   22.0707    0.0000 </r>
       <r>   23.9826    0.0000 </r>
       <r>   23.9826    0.0000 </r>
       <r>   28.3727    0.0000 </r>
       <r>   29.2043    0.0000 </r>
       <r>   29.2142    0.0000 </r>
       <r>   29.2142    0.0000 </r>
       <r>   32.0661    0.0000 </r>
       <r>   32.0661    0.0000 </r>
       <r>   33.6396    0.0000 </r>
       <r>   33.6396    0.0000 </r>
       <r>   35.1164    0.0000 </r>
       <r>   35.8878    0.0000 </r>
       <r>   37.8370    0.0000 </r>
       <r>   37.8370    0.0000 </r>
       <r>   38.7790    0.0000 </r>
       <r>   38.7790    0.0000 </r>
       <r>   39.9300    0.0000 </r>
      </set>
      <set comment="kpoint 5">
       <r>   -3.9217    1.0000 </r>
       <r>   -1.2539    1.0000 </r>
       <r>    4.4348    1.0000 </r>
       <r>    4.4348    1.0000 </r>
       <r>    7.0785    0.0000 </r>
       <r>    8.9623    0.0000 </r>
       <r>    8.9623    0.0000 </r>
       <r>   13.3158    0.0000 </r>
       <r>   16.1072    0.0000 </r>
       <r>   16.1072    0.0000 </r>
       <r>   16.7927    0.0000 </r>
       <r>   16.8305    0.0000 </r>
       <r>   16.8305    0.0000 </r>
       <r>   18.3484    0.0000 </r>
       <r>   24.7505    0.0000 </r>
       <r>   25.3577    0.0000 </r>
       <r>   27.0578    0.0000 </r>
       <r>   27.0578    0.0000 </r>
       <r>   27.1761    0.0000 </r>
       <r>   27.1761    0.0000 </r>
       <r>   31.0466    0.0000 </r>
       <r>   31.7598    0.0000 </r>
       <r>   31.7598    0.0000 </r>
       <r>   32.6797    0.0000 </r>
       <r>   32.6797    0.0000 </r>
       <r>   33.6610    0.0000 </r>
       <r>   36.2616    0.0000 </r>
       <r>   37.6248    0.0000 </r>
       <r>   37.6248    0.0000 </r>
       <r>   38.1348    0.0000 </r>
       <r>   38.1348    0.0000 </r>
       <r>   39.0623    0.0000 </r>
      </set>
      <set comment="kpoint 6">
       <r>   -5.9314    1.0000 </r>
       <r>    4.2605    1.0000 </r>
       <r>    4.8267    1.0000 </r>
       <r>    4.8267    1.0000 </r>
       <r>    7.6284    0.0000 </r>
       <r>    9.2838    0.0000 </r>
       <r>    9.2838    0.0000 </r>
       <r>    9.8300    0.0000 </r>
       <r>   12.0968    0.0000 </r>
       <r>   13.6198    0.0000 </r>
       <r>   14.5608    0.0000 </r>
       <r>   17.2603    0.0000 </r>
       <r>   17.2603    0.0000 </r>
       <r>   17.7393    0.0000 </r>
       <r>   22.6772    0.0000 </r>
       <r>   25.9741    0.0000 </r>
       <r>   25.9741    0.0000 </r>
       <r>   27.2077    0.0000 </r>
       <r>   27.9774    0.0000 </r>
       <r>   28.8240    0.0000 </r>
       <r>   31.7712    0.0000 </r>
       <r>   32.1176    0.0000 </r>
       <r>   32.1176    0.0000 </r>
       <r>   36.4627    0.0000 </r>
       <r>   36.4627    0.0000 </r>
       <r>   36.9701    0.0000 </r>
       <r>   38.3609    0.0000 </r>
       <r>   38.3609    0.0000 </r>
       <r>   38.4767    0.0000 </r>
       <r>   40.6248    0.0000 </r>
       <r>   42.3108    0.0000 </r>
       <r>   43.2862    0.0000 </r>
      </set>
      <set comment="kpoint 7">
       <r>   -5.6690    1.0000 </r>
       <r>    2.9386    1.0000 </r>
       <r>    4.0245    1.0000 </r>
       <r>    5.3233    1.0000 </r>
       <r>    8.5801    0.0000 </r>
       <r>    8.7214    0.0000 </r>
       <r>    8.9435    0.0000 </r>
       <r>   11.0413    0.0000 </r>
       <r>   11.9690    0.0000 </r>
       <r>   13.5775    0.0000 </r>
       <r>   15.2683    0.0000 </r>
       <r>   16.7268    0.0000 </r>
       <r>   17.8901    0.0000 </r>
       <r>   19.9694    0.0000 </r>
       <r>   23.1279    0.0000 </r>
       <r>   23.5771    0.0000 </r>
       <r>   26.3253    0.0000 </r>
       <r>   26.5637    0.0000 </r>
       <r>   27.0649    0.0000 </r>
       <r>   28.3975    0.0000 </r>
       <r>   31.7775    0.0000 </r>
       <r>   32.0018    0.0000 </r>
       <r>   34.0112    0.0000 </r>
       <r>   35.7221    0.0000 </r>
       <r>   35.9899    0.0000 </r>
       <r>   37.2890    0.0000 </r>
       <r>   37.4989    0.0000 </r>
       <r>   38.9979    0.0000 </r>
       <r>   39.1048    0.0000 </r>
       <r>   39.6336    0.0000 </r>
       <r>   41.1689    0.0000 </r>
       <r>   41.1705    0.0000 </r>
      </set>
      <set comment="kpoint 8">
       <r>   -4.9731    1.0000 </r>
       <r>    1.0323    1.0000 </r>
       <r>    3.3472    1.0000 </r>
       <r>    4.8518    1.0000 </r>
       <r>    8.2676    0.0000 </r>
       <r>    9.2738    0.0000 </r>
       <r>    9.4482    0.0000 </r>
       <r>   11.8231    0.0000 </r>
       <r>   12.0890    0.0000 </r>
       <r>   15.3573    0.0000 </r>
       <r>   15.5697    0.0000 </r>
       <r>   17.9143    0.0000 </r>
       <r>   19.4637    0.0000 </r>
       <r>   20.9079    0.0000 </r>
       <r>   21.8366    0.0000 </r>
       <r>   23.4168    0.0000 </r>
       <r>   24.2638    0.0000 </r>
       <r>   27.1549    0.0000 </r>
       <r>   27.3504    0.0000 </r>
       <r>   28.2535    0.0000 </r>
       <r>   31.3539    0.0000 </r>
       <r>   31.8214    0.0000 </r>
       <r>   32.6407    0.0000 </r>
       <r>   34.7699    0.0000 </r>
       <r>   34.9414    0.0000 </r>
       <r>   36.2006    0.0000 </r>
       <r>   36.3780    0.0000 </r>
       <r>   37.4455    0.0000 </r>
       <r>   38.4115    0.0000 </r>
       <r>   39.4784    0.0000 </r>
       <r>   39.7836    0.0000 </r>
       <r>   42.2846    0.0000 </r>
      </set>
      <set comment="kpoint 9">
       <r>   -4.0718    1.0000 </r>
       <r>   -0.6825    1.0000 </r>
       <r>    3.1929    1.0000 </r>
       <r>    4.3707    1.0000 </r>
       <r>    7.9247    0.0000 </r>
       <r>    9.2205    0.0000 </r>
       <r>    9.4766    0.0000 </r>
       <r>   13.4395    0.0000 </r>
       <r>   13.6710    0.0000 </r>
       <r>   14.7471    0.0000 </r>
       <r>   16.6886    0.0000 </r>
       <r>   17.8923    0.0000 </r>
       <r>   19.7373    0.0000 </r>
       <r>   20.0949    0.0000 </r>
       <r>   22.3034    0.0000 </r>
       <r>   24.0683    0.0000 </r>
       <r>   25.9061    0.0000 </r>
       <r>   27.5166    0.0000 </r>
       <r>   27.7763    0.0000 </r>
       <r>   27.9052    0.0000 </r>
       <r>   30.0597    0.0000 </r>
       <r>   30.4895    0.0000 </r>
       <r>   32.7035    0.0000 </r>
       <r>   32.7860    0.0000 </r>
       <r>   33.1588    0.0000 </r>
       <r>   34.4707    0.0000 </r>
       <r>   35.5690    0.0000 </r>
       <r>   36.5758    0.0000 </r>
       <r>   38.4974    0.0000 </r>
       <r>   38.7964    0.0000 </r>
       <r>   38.8614    0.0000 </r>
       <r>   40.1744    0.0000 </r>
      </set>
      <set comment="kpoint 10">
       <r>   -3.8347    1.0000 </r>
       <r>   -1.0436    1.0000 </r>
       <r>    3.3680    1.0000 </r>
       <r>    4.0816    1.0000 </r>
       <r>    7.7756    0.0000 </r>
       <r>    9.1012    0.0000 </r>
       <r>    9.7061    0.0000 </r>
       <r>   12.9167    0.0000 </r>
       <r>   14.5561    0.0000 </r>
       <r>   16.0285    0.0000 </r>
       <r>   17.0129    0.0000 </r>
       <r>   17.1493    0.0000 </r>
       <r>   17.9342    0.0000 </r>
       <r>   20.4421    0.0000 </r>
       <r>   23.7148    0.0000 </r>
       <r>   25.0747    0.0000 </r>
       <r>   25.7023    0.0000 </r>
       <r>   26.4625    0.0000 </r>
       <r>   27.3046    0.0000 </r>
       <r>   27.6758    0.0000 </r>
       <r>   30.0310    0.0000 </r>
       <r>   31.3365    0.0000 </r>
       <r>   31.7182    0.0000 </r>
       <r>   32.8222    0.0000 </r>
       <r>   33.3829    0.0000 </r>
       <r>   34.9575    0.0000 </r>
       <r>   35.2419    0.0000 </r>
       <r>   35.6239    0.0000 </r>
       <r>   38.0470    0.0000 </r>
       <r>   38.3783    0.0000 </r>
       <r>   39.0375    0.0000 </r>
       <r>   40.1354    0.0000 </r>
      </set>
      <set comment="kpoint 11">
       <r>   -4.6732    1.0000 </r>
       <r>    0.3862    1.0000 </r>
       <r>    3.8049    1.0000 </r>
       <r>    4.0597    1.0000 </r>
       <r>    7.8409    0.0000 </r>
       <r>    9.2047    0.0000 </r>
       <r>   10.0539    0.0000 </r>
       <r>   11.0521    0.0000 </r>
       <r>   14.8816    0.0000 </r>
       <r>   14.8932    0.0000 </r>
       <r>   15.4016    0.0000 </r>
       <r>   18.8816    0.0000 </r>
       <r>   18.8942    0.0000 </r>
       <r>   20.6503    0.0000 </r>
       <r>   22.1486    0.0000 </r>
       <r>   23.0539    0.0000 </r>
       <r>   24.0212    0.0000 </r>
       <r>   27.2475    0.0000 </r>
       <r>   27.9657    0.0000 </r>
       <r>   28.9397    0.0000 </r>
       <r>   30.0988    0.0000 </r>
       <r>   30.8573    0.0000 </r>
       <r>   32.7629    0.0000 </r>
       <r>   34.3514    0.0000 </r>
       <r>   35.4116    0.0000 </r>
       <r>   35.5933    0.0000 </r>
       <r>   35.7651    0.0000 </r>
       <r>   36.9513    0.0000 </r>
       <r>   37.9723    0.0000 </r>
       <r>   38.4770    0.0000 </r>
       <r>   40.0697    0.0000 </r>
       <r>   41.4542    0.0000 </r>
      </set>
      <set comment="kpoint 12">
       <r>   -5.4715    1.0000 </r>
       <r>    2.4075    1.0000 </r>
       <r>    4.3245    1.0000 </r>
       <r>    4.3881    1.0000 </r>
       <r>    7.7579    0.0000 </r>
       <r>    9.2363    0.0000 </r>
       <r>   10.0394    0.0000 </r>
       <r>   10.3515    0.0000 </r>
       <r>   12.9713    0.0000 </r>
       <r>   13.7809    0.0000 </r>
       <r>   15.5480    0.0000 </r>
       <r>   17.1096    0.0000 </r>
       <r>   18.6522    0.0000 </r>
       <r>   19.9005    0.0000 </r>
       <r>   23.0230    0.0000 </r>
       <r>   23.4840    0.0000 </r>
       <r>   24.6860    0.0000 </r>
       <r>   26.9204    0.0000 </r>
       <r>   26.9403    0.0000 </r>
       <r>   28.3851    0.0000 </r>
       <r>   31.5299    0.0000 </r>
       <r>   32.5011    0.0000 </r>
       <r>   33.5227    0.0000 </r>
       <r>   35.1044    0.0000 </r>
       <r>   36.6948    0.0000 </r>
       <r>   37.0035    0.0000 </r>
       <r>   37.3541    0.0000 </r>
       <r>   38.1919    0.0000 </r>
       <r>   38.7367    0.0000 </r>
       <r>   39.4368    0.0000 </r>
       <r>   40.9861    0.0000 </r>
       <r>   41.0201    0.0000 </r>
      </set>
      <set comment="kpoint 13">
       <r>   -5.1372    1.0000 </r>
       <r>    2.0945    1.0000 </r>
       <r>    3.7650    1.0000 </r>
       <r>    3.7650    1.0000 </r>
       <r>    6.7650    0.0000 </r>
       <r>    8.7489    0.0000 </r>
       <r>   11.3012    0.0000 </r>
       <r>   11.3012    0.0000 </r>
       <r>   13.4783    0.0000 </r>
       <r>   14.5127    0.0000 </r>
       <r>   16.9135    0.0000 </r>
       <r>   18.5288    0.0000 </r>
       <r>   18.5288    0.0000 </r>
       <r>   19.2414    0.0000 </r>
       <r>   22.8295    0.0000 </r>
       <r>   22.8295    0.0000 </r>
       <r>   23.7814    0.0000 </r>
       <r>   25.6696    0.0000 </r>
       <r>   26.3411    0.0000 </r>
       <r>   30.2712    0.0000 </r>
       <r>   31.5898    0.0000 </r>
       <r>   32.5698    0.0000 </r>
       <r>   32.5698    0.0000 </r>
       <r>   34.7679    0.0000 </r>
       <r>   34.7679    0.0000 </r>
       <r>   34.9425    0.0000 </r>
       <r>   35.6066    0.0000 </r>
       <r>   39.9081    0.0000 </r>
       <r>   40.3616    0.0000 </r>
       <r>   40.5834    0.0000 </r>
       <r>   40.5834    0.0000 </r>
       <r>   42.2575    0.0000 </r>
      </set>
      <set comment="kpoint 14">
       <r>   -4.1960    1.0000 </r>
       <r>    0.1742    1.0000 </r>
       <r>    1.9452    1.0000 </r>
       <r>    4.3110    1.0000 </r>
       <r>    8.0506    0.0000 </r>
       <r>   10.3605    0.0000 </r>
       <r>   10.6960    0.0000 </r>
       <r>   11.6527    0.0000 </r>
       <r>   12.0670    0.0000 </r>
       <r>   15.1330    0.0000 </r>
       <r>   18.1060    0.0000 </r>
       <r>   18.6401    0.0000 </r>
       <r>   18.9560    0.0000 </r>
       <r>   22.1165    0.0000 </r>
       <r>   22.4940    0.0000 </r>
       <r>   22.8118    0.0000 </r>
       <r>   24.0778    0.0000 </r>
       <r>   26.5673    0.0000 </r>
       <r>   27.1084    0.0000 </r>
       <r>   29.2852    0.0000 </r>
       <r>   30.1691    0.0000 </r>
       <r>   30.6024    0.0000 </r>
       <r>   32.0817    0.0000 </r>
       <r>   32.4128    0.0000 </r>
       <r>   33.0456    0.0000 </r>
       <r>   34.5689    0.0000 </r>
       <r>   35.6051    0.0000 </r>
       <r>   36.4609    0.0000 </r>
       <r>   39.3089    0.0000 </r>
       <r>   39.5215    0.0000 </r>
       <r>   41.2673    0.0000 </r>
       <r>   42.1820    0.0000 </r>
      </set>
      <set comment="kpoint 15">
       <r>   -3.3393    1.0000 </r>
       <r>   -0.9594    1.0000 </r>
       <r>    1.7045    1.0000 </r>
       <r>    3.7650    1.0000 </r>
       <r>    7.4693    0.0000 </r>
       <r>   11.0138    0.0000 </r>
       <r>   11.0546    0.0000 </r>
       <r>   12.4954    0.0000 </r>
       <r>   13.5040    0.0000 </r>
       <r>   13.5601    0.0000 </r>
       <r>   18.0909    0.0000 </r>
       <r>   20.2923    0.0000 </r>
       <r>   20.5039    0.0000 </r>
       <r>   21.4353    0.0000 </r>
       <r>   21.8889    0.0000 </r>
       <r>   23.7902    0.0000 </r>
       <r>   24.8078    0.0000 </r>
       <r>   25.3514    0.0000 </r>
       <r>   27.1853    0.0000 </r>
       <r>   27.4934    0.0000 </r>
       <r>   30.0755    0.0000 </r>
       <r>   30.6811    0.0000 </r>
       <r>   31.1405    0.0000 </r>
       <r>   31.6830    0.0000 </r>
       <r>   33.2117    0.0000 </r>
       <r>   33.9582    0.0000 </r>
       <r>   34.5600    0.0000 </r>
       <r>   35.3655    0.0000 </r>
       <r>   38.6975    0.0000 </r>
       <r>   39.3545    0.0000 </r>
       <r>   40.9819    0.0000 </r>
       <r>   41.2055    0.0000 </r>
      </set>
      <set comment="kpoint 16">
       <r>   -3.5364    1.0000 </r>
       <r>   -0.7096    1.0000 </r>
       <r>    2.1517    1.0000 </r>
       <r>    3.4539    1.0000 </r>
       <r>    7.1554    0.0000 </r>
       <r>   10.0449    0.0000 </r>
       <r>   11.2577    0.0000 </r>
       <r>   11.4890    0.0000 </r>
       <r>   15.6976    0.0000 </r>
       <r>   16.0722    0.0000 </r>
       <r>   17.6603    0.0000 </r>
       <r>   18.1313    0.0000 </r>
       <r>   18.4870    0.0000 </r>
       <r>   22.2657    0.0000 </r>
       <r>   23.1664    0.0000 </r>
       <r>   23.9752    0.0000 </r>
       <r>   24.7765    0.0000 </r>
       <r>   24.9928    0.0000 </r>
       <r>   25.3271    0.0000 </r>
       <r>   28.2633    0.0000 </r>
       <r>   29.0794    0.0000 </r>
       <r>   30.5258    0.0000 </r>
       <r>   30.9047    0.0000 </r>
       <r>   33.1193    0.0000 </r>
       <r>   34.3652    0.0000 </r>
       <r>   34.6030    0.0000 </r>
       <r>   34.6458    0.0000 </r>
       <r>   36.4102    0.0000 </r>
       <r>   37.3612    0.0000 </r>
       <r>   39.5385    0.0000 </r>
       <r>   40.6750    0.0000 </r>
       <r>   41.3326    0.0000 </r>
      </set>
      <set comment="kpoint 17">
       <r>   -4.4409    1.0000 </r>
       <r>    0.6981    1.0000 </r>
       <r>    2.9993    1.0000 </r>
       <r>    3.4520    1.0000 </r>
       <r>    6.9845    0.0000 </r>
       <r>    8.5164    0.0000 </r>
       <r>   11.5201    0.0000 </r>
       <r>   11.8187    0.0000 </r>
       <r>   15.5355    0.0000 </r>
       <r>   15.5801    0.0000 </r>
       <r>   17.1592    0.0000 </r>
       <r>   18.6970    0.0000 </r>
       <r>   19.2452    0.0000 </r>
       <r>   20.2857    0.0000 </r>
       <r>   21.3701    0.0000 </r>
       <r>   22.5627    0.0000 </r>
       <r>   23.8225    0.0000 </r>
       <r>   25.2127    0.0000 </r>
       <r>   27.2361    0.0000 </r>
       <r>   29.5184    0.0000 </r>
       <r>   30.5119    0.0000 </r>
       <r>   31.6361    0.0000 </r>
       <r>   31.7630    0.0000 </r>
       <r>   32.7160    0.0000 </r>
       <r>   34.1686    0.0000 </r>
       <r>   34.5191    0.0000 </r>
       <r>   35.7253    0.0000 </r>
       <r>   38.4967    0.0000 </r>
       <r>   38.5882    0.0000 </r>
       <r>   40.4463    0.0000 </r>
       <r>   41.7468    0.0000 </r>
       <r>   42.0541    0.0000 </r>
      </set>
      <set comment="kpoint 18">
       <r>   -3.8491    1.0000 </r>
       <r>   -0.0987    1.0000 </r>
       <r>    3.0611    1.0000 </r>
       <r>    3.0611    1.0000 </r>
       <r>    6.2643    0.0000 </r>
       <r>    7.1897    0.0000 </r>
       <r>   13.5483    0.0000 </r>
       <r>   13.5483    0.0000 </r>
       <r>   15.9947    0.0000 </r>
       <r>   16.0916    0.0000 </r>
       <r>   18.4951    0.0000 </r>
       <r>   18.4951    0.0000 </r>
       <r>   19.0733    0.0000 </r>
       <r>   20.6681    0.0000 </r>
       <r>   21.4573    0.0000 </r>
       <r>   22.2993    0.0000 </r>
       <r>   22.2993    0.0000 </r>
       <r>   24.1645    0.0000 </r>
       <r>   28.7983    0.0000 </r>
       <r>   28.9373    0.0000 </r>
       <r>   29.4289    0.0000 </r>
       <r>   29.4289    0.0000 </r>
       <r>   30.7375    0.0000 </r>
       <r>   32.4779    0.0000 </r>
       <r>   34.2838    0.0000 </r>
       <r>   34.2838    0.0000 </r>
       <r>   34.3433    0.0000 </r>
       <r>   40.2874    0.0000 </r>
       <r>   40.2874    0.0000 </r>
       <r>   40.4063    0.0000 </r>
       <r>   40.8058    0.0000 </r>
       <r>   41.4542    0.0000 </r>
      </set>
      <set comment="kpoint 19">
       <r>   -2.5471    1.0000 </r>
       <r>   -1.5500    1.0000 </r>
       <r>    1.4142    1.0000 </r>
       <r>    3.2380    1.0000 </r>
       <r>    6.8479    0.0000 </r>
       <r>    9.7251    0.0000 </r>
       <r>   12.9918    0.0000 </r>
       <r>   13.5281    0.0000 </r>
       <r>   13.6931    0.0000 </r>
       <r>   14.0931    0.0000 </r>
       <r>   20.1111    0.0000 </r>
       <r>   20.3768    0.0000 </r>
       <r>   20.9040    0.0000 </r>
       <r>   21.1414    0.0000 </r>
       <r>   21.3495    0.0000 </r>
       <r>   22.4539    0.0000 </r>
       <r>   24.9940    0.0000 </r>
       <r>   25.3553    0.0000 </r>
       <r>   26.9071    0.0000 </r>
       <r>   27.0342    0.0000 </r>
       <r>   28.2258    0.0000 </r>
       <r>   28.3526    0.0000 </r>
       <r>   30.5132    0.0000 </r>
       <r>   31.2682    0.0000 </r>
       <r>   34.2670    0.0000 </r>
       <r>   34.6482    0.0000 </r>
       <r>   34.8375    0.0000 </r>
       <r>   36.3806    0.0000 </r>
       <r>   39.9551    0.0000 </r>
       <r>   40.0504    0.0000 </r>
       <r>   40.2717    0.0000 </r>
       <r>   40.4793    0.0000 </r>
      </set>
      <set comment="kpoint 20">
       <r>   -2.9701    1.0000 </r>
       <r>   -1.1650    1.0000 </r>
       <r>    2.2560    1.0000 </r>
       <r>    2.9859    1.0000 </r>
       <r>    6.5448    0.0000 </r>
       <r>    7.5986    0.0000 </r>
       <r>   13.7855    0.0000 </r>
       <r>   13.8410    0.0000 </r>
       <r>   16.2292    0.0000 </r>
       <r>   16.3310    0.0000 </r>
       <r>   17.8274    0.0000 </r>
       <r>   18.2471    0.0000 </r>
       <r>   20.3517    0.0000 </r>
       <r>   20.4162    0.0000 </r>
       <r>   21.4105    0.0000 </r>
       <r>   24.1364    0.0000 </r>
       <r>   24.2069    0.0000 </r>
       <r>   24.8508    0.0000 </r>
       <r>   26.1600    0.0000 </r>
       <r>   27.6805    0.0000 </r>
       <r>   28.0971    0.0000 </r>
       <r>   28.8388    0.0000 </r>
       <r>   29.4271    0.0000 </r>
       <r>   31.1765    0.0000 </r>
       <r>   34.5758    0.0000 </r>
       <r>   35.3278    0.0000 </r>
       <r>   37.1380    0.0000 </r>
       <r>   38.1359    0.0000 </r>
       <r>   38.2016    0.0000 </r>
       <r>   39.7364    0.0000 </r>
       <r>   40.7840    0.0000 </r>
       <r>   41.9891    0.0000 </r>
      </set>
      <set comment="kpoint 21">
       <r>   -2.1323    1.0000 </r>
       <r>   -2.1323    1.0000 </r>
       <r>    2.8197    1.0000 </r>
       <r>    2.8197    1.0000 </r>
       <r>    6.3655    0.0000 </r>
       <r>    6.3655    0.0000 </r>
       <r>   15.5459    0.0000 </r>
       <r>   15.5459    0.0000 </r>
       <r>   16.5193    0.0000 </r>
       <r>   16.5193    0.0000 </r>
       <r>   18.0543    0.0000 </r>
       <r>   18.0543    0.0000 </r>
       <r>   18.4117    0.0000 </r>
       <r>   18.4117    0.0000 </r>
       <r>   24.2881    0.0000 </r>
       <r>   24.2881    0.0000 </r>
       <r>   25.1664    0.0000 </r>
       <r>   25.1664    0.0000 </r>
       <r>   25.6188    0.0000 </r>
       <r>   25.6188    0.0000 </r>
       <r>   26.8666    0.0000 </r>
       <r>   26.8666    0.0000 </r>
       <r>   30.7975    0.0000 </r>
       <r>   30.7975    0.0000 </r>
       <r>   34.6906    0.0000 </r>
       <r>   34.6906    0.0000 </r>
       <r>   39.4023    0.0000 </r>
       <r>   39.4023    0.0000 </r>
       <r>   39.5534    0.0000 </r>
       <r>   39.5534    0.0000 </r>
       <r>   41.0226    0.0000 </r>
       <r>   41.0226    0.0000 </r>
      </set>
      <set comment="kpoint 22">
       <r>   -4.8950    1.0000 </r>
       <r>    1.3451    1.0000 </r>
       <r>    2.9619    1.0000 </r>
       <r>    4.2132    1.0000 </r>
       <r>    8.0562    0.0000 </r>
       <r>    9.4388    0.0000 </r>
       <r>    9.8165    0.0000 </r>
       <r>   11.0529    0.0000 </r>
       <r>   13.3249    0.0000 </r>
       <r>   15.7162    0.0000 </r>
       <r>   16.5767    0.0000 </r>
       <r>   17.6455    0.0000 </r>
       <r>   19.3534    0.0000 </r>
       <r>   20.5529    0.0000 </r>
       <r>   21.3147    0.0000 </r>
       <r>   23.6263    0.0000 </r>
       <r>   24.7049    0.0000 </r>
       <r>   25.9338    0.0000 </r>
       <r>   27.0492    0.0000 </r>
       <r>   28.8160    0.0000 </r>
       <r>   30.5442    0.0000 </r>
       <r>   31.3827    0.0000 </r>
       <r>   33.1634    0.0000 </r>
       <r>   34.0993    0.0000 </r>
[...]
        <r>  0.0231  0.0175  0.0896  0.0508  0.0000  0.0000  0.0000  0.0000  0.0000 </r>
       </set>
       <set comment="band 12">
        <r>  0.0207  0.0140  0.0054  0.0083  0.0000  0.0000  0.0000  0.0000  0.0000 </r>
        <r>  0.0207  0.0140  0.0054  0.0083  0.0000  0.0000  0.0000  0.0000  0.0000 </r>
       </set>
       <set comment="band 13">
        <r>  0.0027  0.0778  0.0213  0.0037  0.0000  0.0000  0.0000  0.0000  0.0000 </r>
        <r>  0.0027  0.0778  0.0213  0.0037  0.0000  0.0000  0.0000  0.0000  0.0000 </r>
       </set>
       <set comment="band 14">
        <r>  0.0003  0.0090  0.0147  0.0227  0.0000  0.0000  0.0000  0.0000  0.0000 </r>
        <r>  0.0003  0.0090  0.0147  0.0227  0.0000  0.0000  0.0000  0.0000  0.0000 </r>
       </set>
       <set comment="band 15">
        <r>  0.0317  0.0124  0.0279  0.0057  0.0000  0.0000  0.0000  0.0000  0.0000 </r>
        <r>  0.0317  0.0124  0.0279  0.0057  0.0000  0.0000  0.0000  0.0000  0.0000 </r>
       </set>
       <set comment="band 16">
        <r>  0.0087  0.0095  0.0068  0.0053  0.0000  0.0000  0.0000  0.0000  0.0000 </r>
        <r>  0.0087  0.0095  0.0068  0.0053  0.0000  0.0000  0.0000  0.0000  0.0000 </r>
       </set>
       <set comment="band 17">
        <r>  0.0008  0.0098  0.0120  0.0185  0.0000  0.0000  0.0000  0.0000  0.0000 </r>
        <r>  0.0008  0.0098  0.0120  0.0185  0.0000  0.0000  0.0000  0.0000  0.0000 </r>
       </set>
       <set comment="band 18">
        <r>  0.0209  0.0609  0.0032  0.0352  0.0000  0.0000  0.0000  0.0000  0.0000 </r>
        <r>  0.0209  0.0609  0.0032  0.0352  0.0000  0.0000  0.0000  0.0000  0.0000 </r>
       </set>
       <set comment="band 19">
        <r>  0.0072  0.0089  0.0264  0.0129  0.0000  0.0000  0.0000  0.0000  0.0000 </r>
        <r>  0.0072  0.0089  0.0264  0.0129  0.0000  0.0000  0.0000  0.0000  0.0000 </r>
       </set>
       <set comment="band 20">
        <r>  0.0069  0.0043  0.0142  0.0172  0.0000  0.0000  0.0000  0.0000  0.0000 </r>
        <r>  0.0069  0.0043  0.0142  0.0172  0.0000  0.0000  0.0000  0.0000  0.0000 </r>
       </set>
       <set comment="band 21">
        <r>  0.0146  0.0027  0.0094  0.0035  0.0000  0.0000  0.0000  0.0000  0.0000 </r>
        <r>  0.0146  0.0027  0.0094  0.0035  0.0000  0.0000  0.0000  0.0000  0.0000 </r>
       </set>
       <set comment="band 22">
        <r>  0.0327  0.0054  0.0097  0.0150  0.0000  0.0000  0.0000  0.0000  0.0000 </r>
        <r>  0.0327  0.0054  0.0097  0.0150  0.0000  0.0000  0.0000  0.0000  0.0000 </r>
       </set>
       <set comment="band 23">
        <r>  0.0068  0.0398  0.0025  0.0241  0.0000  0.0000  0.0000  0.0000  0.0000 </r>
        <r>  0.0068  0.0398  0.0025  0.0241  0.0000  0.0000  0.0000  0.0000  0.0000 </r>
       </set>
       <set comment="band 24">
        <r>  0.0000  0.0007  0.0043  0.0026  0.0000  0.0000  0.0000  0.0000  0.0000 </r>
        <r>  0.0000  0.0007  0.0043  0.0026  0.0000  0.0000  0.0000  0.0000  0.0000 </r>
       </set>
       <set comment="band 25">
        <r>  0.0004  0.0123  0.0127  0.0117  0.0000  0.0000  0.0000  0.0000  0.0000 </r>
        <r>  0.0004  0.0123  0.0127  0.0117  0.0000  0.0000  0.0000  0.0000  0.0000 </r>
       </set>
       <set comment="band 26">
        <r>  0.0170  0.0058  0.0149  0.0206  0.0000  0.0000  0.0000  0.0000  0.0000 </r>
        <r>  0.0170  0.0058  0.0149  0.0206  0.0000  0.0000  0.0000  0.0000  0.0000 </r>
       </set>
       <set comment="band 27">
        <r>  0.0047  0.0064  0.0207  0.0171  0.0000  0.0000  0.0000  0.0000  0.0000 </r>
        <r>  0.0047  0.0064  0.0207  0.0171  0.0000  0.0000  0.0000  0.0000  0.0000 </r>
       </set>
       <set comment="band 28">
        <r>  0.0017  0.0099  0.0073  0.0160  0.0000  0.0000  0.0000  0.0000  0.0000 </r>
        <r>  0.0017  0.0099  0.0073  0.0160  0.0000  0.0000  0.0000  0.0000  0.0000 </r>
       </set>
       <set comment="band 29">
        <r>  0.0064  0.0031  0.0060  0.0091  0.0000  0.0000  0.0000  0.0000  0.0000 </r>
        <r>  0.0064  0.0031  0.0060  0.0091  0.0000  0.0000  0.0000  0.0000  0.0000 </r>
       </set>
       <set comment="band 30">
        <r>  0.0111  0.0080  0.0083  0.0082  0.0000  0.0000  0.0000  0.0000  0.0000 </r>
        <r>  0.0111  0.0080  0.0083  0.0082  0.0000  0.0000  0.0000  0.0000  0.0000 </r>
       </set>
       <set comment="band 31">
        <r>  0.0255  0.0032  0.0112  0.0098  0.0000  0.0000  0.0000  0.0000  0.0000 </r>
        <r>  0.0255  0.0032  0.0112  0.0098  0.0000  0.0000  0.0000  0.0000  0.0000 </r>
       </set>
       <set comment="band 32">
        <r>  0.0020  0.0090  0.0148  0.0113  0.0000  0.0000  0.0000  0.0000  0.0000 </r>
        <r>  0.0020  0.0090  0.0148  0.0113  0.0000  0.0000  0.0000  0.0000  0.0000 </r>
       </set>
      </set>
      <set comment="kpoint 28">
       <set comment="band 1">
        <r>  0.3925  0.0005  0.0004  0.0000  0.0000  0.0000  0.0000  0.0000  0.0000 </r>
        <r>  0.0038  0.0515  0.0282  0.0045  0.0000  0.0000  0.0000  0.0000  0.0000 </r>
       </set>
       <set comment="band 2">
        <r>  0.0038  0.0516  0.0280  0.0047  0.0000  0.0000  0.0000  0.0000  0.0000 </r>
        <r>  0.3925  0.0005  0.0002  0.0002  0.0000  0.0000  0.0000  0.0000  0.0000 </r>
       </set>
       <set comment="band 3">
        <r>  0.0005  0.0477  0.0308  0.1029  0.0000  0.0000  0.0000  0.0000  0.0000 </r>
        <r>  0.0045  0.0307  0.0235  0.1053  0.0000  0.0000  0.0000  0.0000  0.0000 </r>
       </set>
       <set comment="band 4">
        <r>  0.0045  0.0257  0.0828  0.0509  0.0000  0.0000  0.0000  0.0000  0.0000 </r>
        <r>  0.0005  0.0427  0.0902  0.0486  0.0000  0.0000  0.0000  0.0000  0.0000 </r>
       </set>
       <set comment="band 5">
        <r>  0.0481  0.0152  0.0075  0.0399  0.0000  0.0000  0.0000  0.0000  0.0000 </r>
        <r>  0.0311  0.0221  0.0099  0.0378  0.0000  0.0000  0.0000  0.0000  0.0000 </r>
       </set>
       <set comment="band 6">
        <r>  0.0311  0.0332  0.0366  0.0000  0.0000  0.0000  0.0000  0.0000  0.0000 </r>
        <r>  0.0481  0.0263  0.0342  0.0021  0.0000  0.0000  0.0000  0.0000  0.0000 </r>
       </set>
       <set comment="band 7">
        <r>  0.0140  0.0171  0.0738  0.0359  0.0000  0.0000  0.0000  0.0000  0.0000 </r>
        <r>  0.0279  0.0075  0.0733  0.0445  0.0000  0.0000  0.0000  0.0000  0.0000 </r>
       </set>
       <set comment="band 8">
        <r>  0.0279  0.0530  0.0102  0.0621  0.0000  0.0000  0.0000  0.0000  0.0000 </r>
        <r>  0.0140  0.0626  0.0107  0.0535  0.0000  0.0000  0.0000  0.0000  0.0000 </r>
       </set>
       <set comment="band 9">
        <r>  0.0002  0.0312  0.0681  0.0616  0.0000  0.0000  0.0000  0.0000  0.0000 </r>
        <r>  0.0009  0.0052  0.0431  0.0375  0.0000  0.0000  0.0000  0.0000  0.0000 </r>
       </set>
       <set comment="band 10">
        <r>  0.0009  0.0313  0.0141  0.0404  0.0000  0.0000  0.0000  0.0000  0.0000 </r>
        <r>  0.0002  0.0573  0.0392  0.0645  0.0000  0.0000  0.0000  0.0000  0.0000 </r>
       </set>
       <set comment="band 11">
        <r>  0.0020  0.1048  0.0599  0.0139  0.0000  0.0000  0.0000  0.0000  0.0000 </r>
        <r>  0.0469  0.0043  0.0029  0.0004  0.0000  0.0000  0.0000  0.0000  0.0000 </r>
       </set>
       <set comment="band 12">
        <r>  0.0469  0.0045  0.0022  0.0009  0.0000  0.0000  0.0000  0.0000  0.0000 </r>
        <r>  0.0020  0.1050  0.0591  0.0144  0.0000  0.0000  0.0000  0.0000  0.0000 </r>
       </set>
       <set comment="band 13">
        <r>  0.0030  0.0804  0.0770  0.0088  0.0000  0.0000  0.0000  0.0000  0.0000 </r>
        <r>  0.0206  0.0041  0.0444  0.0201  0.0000  0.0000  0.0000  0.0000  0.0000 </r>
       </set>
       <set comment="band 14">
        <r>  0.0206  0.0390  0.0013  0.0283  0.0000  0.0000  0.0000  0.0000  0.0000 </r>
        <r>  0.0030  0.1153  0.0338  0.0170  0.0000  0.0000  0.0000  0.0000  0.0000 </r>
       </set>
       <set comment="band 15">
        <r>  0.0022  0.0072  0.0079  0.0056  0.0000  0.0000  0.0000  0.0000  0.0000 </r>
        <r>  0.0035  0.0051  0.0055  0.0029  0.0000  0.0000  0.0000  0.0000  0.0000 </r>
       </set>
       <set comment="band 16">
        <r>  0.0035  0.0022  0.0035  0.0078  0.0000  0.0000  0.0000  0.0000  0.0000 </r>
        <r>  0.0022  0.0042  0.0059  0.0105  0.0000  0.0000  0.0000  0.0000  0.0000 </r>
       </set>
       <set comment="band 17">
        <r>  0.0321  0.0011  0.0060  0.0140  0.0000  0.0000  0.0000  0.0000  0.0000 </r>
        <r>  0.0338  0.0009  0.0059  0.0140  0.0000  0.0000  0.0000  0.0000  0.0000 </r>
       </set>
       <set comment="band 18">
        <r>  0.0338  0.0107  0.0080  0.0021  0.0000  0.0000  0.0000  0.0000  0.0000 </r>
        <r>  0.0321  0.0108  0.0080  0.0021  0.0000  0.0000  0.0000  0.0000  0.0000 </r>
       </set>
       <set comment="band 19">
        <r>  0.0006  0.0001  0.0001  0.0594  0.0000  0.0000  0.0000  0.0000  0.0000 </r>
        <r>  0.0006  0.0001  0.0001  0.0594  0.0000  0.0000  0.0000  0.0000  0.0000 </r>
       </set>
       <set comment="band 20">
        <r>  0.0006  0.0199  0.0396  0.0000  0.0000  0.0000  0.0000  0.0000  0.0000 </r>
        <r>  0.0006  0.0199  0.0396  0.0000  0.0000  0.0000  0.0000  0.0000  0.0000 </r>
       </set>
       <set comment="band 21">
        <r>  0.0310  0.0084  0.0099  0.0332  0.0000  0.0000  0.0000  0.0000  0.0000 </r>
        <r>  0.0281  0.0095  0.0103  0.0328  0.0000  0.0000  0.0000  0.0000  0.0000 </r>
       </set>
       <set comment="band 22">
        <r>  0.0281  0.0271  0.0248  0.0008  0.0000  0.0000  0.0000  0.0000  0.0000 </r>
        <r>  0.0310  0.0260  0.0244  0.0011  0.0000  0.0000  0.0000  0.0000  0.0000 </r>
       </set>
       <set comment="band 23">
        <r>  0.0003  0.0009  0.0014  0.0077  0.0000  0.0000  0.0000  0.0000  0.0000 </r>
        <r>  0.0003  0.0009  0.0014  0.0077  0.0000  0.0000  0.0000  0.0000  0.0000 </r>
       </set>
       <set comment="band 24">
        <r>  0.0003  0.0024  0.0052  0.0023  0.0000  0.0000  0.0000  0.0000  0.0000 </r>
        <r>  0.0003  0.0024  0.0052  0.0022  0.0000  0.0000  0.0000  0.0000  0.0000 </r>
       </set>
       <set comment="band 25">
        <r>  0.0095  0.0009  0.0037  0.0188  0.0000  0.0000  0.0000  0.0000  0.0000 </r>
        <r>  0.0284  0.0050  0.0132  0.0338  0.0000  0.0000  0.0000  0.0000  0.0000 </r>
       </set>
       <set comment="band 26">
        <r>  0.0284  0.0131  0.0214  0.0175  0.0000  0.0000  0.0000  0.0000  0.0000 </r>
        <r>  0.0095  0.0090  0.0119  0.0024  0.0000  0.0000  0.0000  0.0000  0.0000 </r>
       </set>
       <set comment="band 27">
        <r>  0.0064  0.0103  0.0172  0.0295  0.0000  0.0000  0.0000  0.0000  0.0000 </r>
        <r>  0.0218  0.0024  0.0039  0.0109  0.0000  0.0000  0.0000  0.0000  0.0000 </r>
       </set>
       <set comment="band 28">
        <r>  0.0218  0.0044  0.0075  0.0052  0.0000  0.0000  0.0000  0.0000  0.0000 </r>
        <r>  0.0064  0.0124  0.0208  0.0238  0.0000  0.0000  0.0000  0.0000  0.0000 </r>
       </set>
       <set comment="band 29">
        <r>  0.0003  0.0033  0.0057  0.0066  0.0000  0.0000  0.0000  0.0000  0.0000 </r>
        <r>  0.0003  0.0032  0.0054  0.0063  0.0000  0.0000  0.0000  0.0000  0.0000 </r>
       </set>
       <set comment="band 30">
        <r>  0.0003  0.0028  0.0045  0.0077  0.0000  0.0000  0.0000  0.0000  0.0000 </r>
        <r>  0.0003  0.0029  0.0047  0.0080  0.0000  0.0000  0.0000  0.0000  0.0000 </r>
       </set>
       <set comment="band 31">
        <r>  0.0027  0.0074  0.0058  0.0109  0.0000  0.0000  0.0000  0.0000  0.0000 </r>
        <r>  0.0042  0.0047  0.0031  0.0082  0.0000  0.0000  0.0000  0.0000  0.0000 </r>
       </set>
       <set comment="band 32">
        <r>  0.0042  0.0056  0.0075  0.0028  0.0000  0.0000  0.0000  0.0000  0.0000 </r>
        <r>  0.0027  0.0083  0.0102  0.0055  0.0000  0.0000  0.0000  0.0000  0.0000 </r>
       </set>
      </set>
      <set comment="kpoint 29">
       <set comment="band 1">
        <r>  0.4049  0.0003  0.0002  0.0002  0.0000  0.0000  0.0000  0.0000  0.0000 </r>
        <r>  0.0036  0.0337  0.0270  0.0202  0.0000  0.0000  0.0000  0.0000  0.0000 </r>
       </set>
       <set comment="band 2">
        <r>  0.0036  0.0337  0.0270  0.0202  0.0000  0.0000  0.0000  0.0000  0.0000 </r>
        <r>  0.4049  0.0003  0.0002  0.0002  0.0000  0.0000  0.0000  0.0000  0.0000 </r>
       </set>
       <set comment="band 3">
        <r>  0.0000  0.0897  0.0679  0.0207  0.0000  0.0000  0.0000  0.0000  0.0000 </r>
        <r>  0.0000  0.0452  0.0556  0.0405  0.0000  0.0000  0.0000  0.0000  0.0000 </r>
       </set>
       <set comment="band 4">
        <r>  0.0000  0.0090  0.0386  0.0937  0.0000  0.0000  0.0000  0.0000  0.0000 </r>
        <r>  0.0000  0.0535  0.0509  0.0739  0.0000  0.0000  0.0000  0.0000  0.0000 </r>
       </set>
       <set comment="band 5">
        <r>  0.0000  0.0277  0.0558  0.0843  0.0000  0.0000  0.0000  0.0000  0.0000 </r>
        <r>  0.0000  0.0003  0.0009  0.0020  0.0000  0.0000  0.0000  0.0000  0.0000 </r>
       </set>
       <set comment="band 6">
        <r>  0.0000  0.0008  0.0012  0.0011  0.0000  0.0000  0.0000  0.0000  0.0000 </r>
        <r>  0.0000  0.0283  0.0561  0.0835  0.0000  0.0000  0.0000  0.0000  0.0000 </r>
       </set>
       <set comment="band 7">
        <r>  0.0101  0.0806  0.0645  0.0484  0.0000  0.0000  0.0000  0.0000  0.0000 </r>
        <r>  0.1130  0.0072  0.0058  0.0043  0.0000  0.0000  0.0000  0.0000  0.0000 </r>
       </set>
       <set comment="band 8">
        <r>  0.1130  0.0072  0.0058  0.0043  0.0000  0.0000  0.0000  0.0000  0.0000 </r>
        <r>  0.0101  0.0806  0.0645  0.0484  0.0000  0.0000  0.0000  0.0000  0.0000 </r>
       </set>
       <set comment="band 9">
        <r>  0.0000  0.0430  0.0431  0.0795  0.0000  0.0000  0.0000  0.0000  0.0000 </r>
        <r>  0.0000  0.0076  0.0229  0.0745  0.0000  0.0000  0.0000  0.0000  0.0000 </r>
       </set>
       <set comment="band 10">
        <r>  0.0000  0.0503  0.0471  0.0075  0.0000  0.0000  0.0000  0.0000  0.0000 </r>
        <r>  0.0000  0.0857  0.0673  0.0125  0.0000  0.0000  0.0000  0.0000  0.0000 </r>
       </set>
       <set comment="band 11">
        <r>  0.0058  0.0763  0.0610  0.0458  0.0000  0.0000  0.0000  0.0000  0.0000 </r>
        <r>  0.0450  0.0098  0.0078  0.0059  0.0000  0.0000  0.0000  0.0000  0.0000 </r>
       </set>
       <set comment="band 12">
        <r>  0.0450  0.0098  0.0078  0.0059  0.0000  0.0000  0.0000  0.0000  0.0000 </r>
        <r>  0.0058  0.0763  0.0610  0.0458  0.0000  0.0000  0.0000  0.0000  0.0000 </r>
       </set>
       <set comment="band 13">
        <r>  0.0000  0.0218  0.0177  0.0150  0.0000  0.0000  0.0000  0.0000  0.0000 </r>
        <r>  0.0000  0.0003  0.0014  0.0038  0.0000  0.0000  0.0000  0.0000  0.0000 </r>
       </set>
       <set comment="band 14">
        <r>  0.0000  0.0020  0.0023  0.0012  0.0000  0.0000  0.0000  0.0000  0.0000 </r>
        <r>  0.0000  0.0236  0.0186  0.0123  0.0000  0.0000  0.0000  0.0000  0.0000 </r>
       </set>
       <set comment="band 15">
        <r>  0.0020  0.0187  0.0150  0.0112  0.0000  0.0000  0.0000  0.0000  0.0000 </r>
        <r>  0.0576  0.0007  0.0005  0.0004  0.0000  0.0000  0.0000  0.0000  0.0000 </r>
       </set>
       <set comment="band 16">
        <r>  0.0576  0.0007  0.0005  0.0004  0.0000  0.0000  0.0000  0.0000  0.0000 </r>
        <r>  0.0020  0.0187  0.0150  0.0112  0.0000  0.0000  0.0000  0.0000  0.0000 </r>
       </set>
       <set comment="band 17">
        <r>  0.0000  0.0359  0.0421  0.0808  0.0000  0.0000  0.0000  0.0000  0.0000 </r>
        <r>  0.0000  0.0061  0.0280  0.0823  0.0000  0.0000  0.0000  0.0000  0.0000 </r>
       </set>
       <set comment="band 18">
        <r>  0.0000  0.0548  0.0497  0.0120  0.0000  0.0000  0.0000  0.0000  0.0000 </r>
        <r>  0.0000  0.0846  0.0638  0.0104  0.0000  0.0000  0.0000  0.0000  0.0000 </r>
       </set>
       <set comment="band 19">
        <r>  0.0469  0.0001  0.0000  0.0000  0.0000  0.0000  0.0000  0.0000  0.0000 </r>
        <r>  0.0002  0.0174  0.0140  0.0105  0.0000  0.0000  0.0000  0.0000  0.0000 </r>
       </set>
       <set comment="band 20">
        <r>  0.0002  0.0174  0.0140  0.0105  0.0000  0.0000  0.0000  0.0000  0.0000 </r>
        <r>  0.0469  0.0001  0.0000  0.0000  0.0000  0.0000  0.0000  0.0000  0.0000 </r>
       </set>
       <set comment="band 21">
        <r>  0.0000  0.0087  0.0263  0.0551  0.0000  0.0000  0.0000  0.0000  0.0000 </r>
        <r>  0.0000  0.0019  0.0096  0.0285  0.0000  0.0000  0.0000  0.0000  0.0000 </r>
       </set>
       <set comment="band 22">
        <r>  0.0000  0.0163  0.0171  0.0066  0.0000  0.0000  0.0000  0.0000  0.0000 </r>
        <r>  0.0000  0.0231  0.0337  0.0332  0.0000  0.0000  0.0000  0.0000  0.0000 </r>
       </set>
       <set comment="band 23">
        <r>  0.0001  0.0000  0.0000  0.0000  0.0000  0.0000  0.0000  0.0000  0.0000 </r>
        <r>  0.0001  0.0000  0.0000  0.0000  0.0000  0.0000  0.0000  0.0000  0.0000 </r>
       </set>
       <set comment="band 24">
        <r>  0.0001  0.0000  0.0000  0.0000  0.0000  0.0000  0.0000  0.0000  0.0000 </r>
        <r>  0.0001  0.0000  0.0000  0.0000  0.0000  0.0000  0.0000  0.0000  0.0000 </r>
       </set>
       <set comment="band 25">
        <r>  0.0000  0.0158  0.0150  0.0039  0.0000  0.0000  0.0000  0.0000  0.0000 </r>
        <r>  0.0000  0.0158  0.0150  0.0039  0.0000  0.0000  0.0000  0.0000  0.0000 </r>
       </set>
       <set comment="band 26">
        <r>  0.0000  0.0018  0.0082  0.0248  0.0000  0.0000  0.0000  0.0000  0.0000 </r>
        <r>  0.0000  0.0018  0.0081  0.0248  0.0000  0.0000  0.0000  0.0000  0.0000 </r>
       </set>
       <set comment="band 27">
        <r>  0.0139  0.0069  0.0055  0.0041  0.0000  0.0000  0.0000  0.0000  0.0000 </r>
        <r>  0.1088  0.0009  0.0007  0.0005  0.0000  0.0000  0.0000  0.0000  0.0000 </r>
       </set>
       <set comment="band 28">
        <r>  0.1088  0.0009  0.0007  0.0005  0.0000  0.0000  0.0000  0.0000  0.0000 </r>
        <r>  0.0139  0.0069  0.0055  0.0041  0.0000  0.0000  0.0000  0.0000  0.0000 </r>
       </set>
       <set comment="band 29">
        <r>  0.0000  0.0007  0.0035  0.0102  0.0000  0.0000  0.0000  0.0000  0.0000 </r>
        <r>  0.0000  0.0008  0.0034  0.0100  0.0000  0.0000  0.0000  0.0000  0.0000 </r>
       </set>
       <set comment="band 30">
        <r>  0.0000  0.0068  0.0060  0.0014  0.0000  0.0000  0.0000  0.0000  0.0000 </r>
        <r>  0.0000  0.0067  0.0061  0.0015  0.0000  0.0000  0.0000  0.0000  0.0000 </r>
       </set>
       <set comment="band 31">
        <r>  0.0036  0.0160  0.0128  0.0096  0.0000  0.0000  0.0000  0.0000  0.0000 </r>
        <r>  0.0035  0.0169  0.0135  0.0101  0.0000  0.0000  0.0000  0.0000  0.0000 </r>
       </set>
       <set comment="band 32">
        <r>  0.0035  0.0169  0.0135  0.0101  0.0000  0.0000  0.0000  0.0000  0.0000 </r>
        <r>  0.0036  0.0160  0.0128  0.0096  0.0000  0.0000  0.0000  0.0000  0.0000 </r>
       </set>
      </set>
     </set>
    </set>
   </array>
  </projected>
 </calculation>
 <structure name="finalpos" >
  <crystal>
   <varray name="basis" >
    <v>       3.86748352      -0.00000000      -0.00000000 </v>
    <v>       1.93374176       3.34933997       0.00000002 </v>
    <v>      -0.00000000      -2.23289129       3.15778753 </v>
   </varray>
   <i name="volume">     40.90445509 </i>
   <varray name="rec_basis" >
    <v>       0.25856607      -0.14928314      -0.10555904 </v>
    <v>       0.00000000       0.29856629       0.21111809 </v>
    <v>       0.00000000      -0.00000000       0.31667742 </v>
   </varray>
  </crystal>
  <varray name="positions" >
   <v>      -0.00000000      -0.00000000      -0.00000000 </v>
   <v>       0.75000000       0.50000000       0.75000000 </v>
  </varray>
 </structure>
</modeling>
