unknown system                          
   1.00000000000000     
     3.867484    0.000000    0.000000
     1.933742    3.349340    0.000000
     0.000000   -2.232891    3.157788
   Si
     2
Direct
  0.000000  0.000000  0.000000
  0.750000  0.500000  0.750000
 
   60   60   60
 0.27293857782E+04 0.66466597545E+02 0.80770478718E+02 0.59519545776E+02 0.23486772005E+02
 0.50855967996E+01 0.13215103072E+01 0.42707980828E+01 0.88392230443E+01 0.12732848826E+02
 0.15276785733E+02 0.16538534835E+02 0.16795340953E+02 0.16340462787E+02 0.15444077721E+02
 0.14323599827E+02 0.13134059211E+02 0.11980534281E+02 0.10923451105E+02 0.99956433986E+01
 0.92075452621E+01 0.85573082911E+01 0.80340595369E+01 0.76234890128E+01 0.73088739570E+01
 0.70742913445E+01 0.69044115675E+01 0.67865678687E+01 0.67099588667E+01 0.66672301180E+01
 0.66534080920E+01 0.66672328855E+01 0.67099617830E+01 0.67865688286E+01 0.69044158805E+01
 0.70742968352E+01 0.73088808327E+01 0.76234983533E+01 0.80340607908E+01 0.85573022136E+01
 0.92075410274E+01 0.99956474998E+01 0.10923454835E+02 0.11980529767E+02 0.13134064806E+02
 0.14323596124E+02 0.15444076084E+02 0.16340462133E+02 0.16795340914E+02 0.16538535408E+02
 0.15276785999E+02 0.12732850047E+02 0.88392239416E+01 0.42707984077E+01 0.13215107182E+01
 0.50855961771E+01 0.23486771675E+02 0.59519545279E+02 0.80770479251E+02 0.66466597310E+02
 0.66466623300E+02 0.73904097670E+02 0.72445950045E+02 0.36084062001E+02 0.10501546374E+02
 0.16822936725E+01 0.25113946755E+01 0.67388954776E+01 0.11056598274E+02 0.14210892558E+02
 0.16012180279E+02 0.16680194150E+02 0.16502746322E+02 0.15762853355E+02 0.14702226859E+02
 0.13505423926E+02 0.12297916253E+02 0.11160273739E+02 0.10138160929E+02 0.92513573459E+01
 0.85042768124E+01 0.78900952512E+01 0.73968422527E+01 0.70092077585E+01 0.67116720778E+01
 0.64890665829E+01 0.63281219126E+01 0.62175389055E+01 0.61487423174E+01 0.61158158327E+01
 0.61158141732E+01 0.61487417437E+01 0.62175362989E+01 0.63281212025E+01 0.64890609835E+01
 0.67116697402E+01 0.70091995623E+01 0.73968344476E+01 0.78900940443E+01 0.85042815523E+01
 0.92513619062E+01 0.10138157299E+02 0.11160269762E+02 0.12297920815E+02 0.13505418411E+02
 0.14702234501E+02 0.15762841180E+02 0.16502753824E+02 0.16680191074E+02 0.16012196777E+02
 0.14210878240E+02 0.11056613399E+02 0.67388724785E+01 0.25113857720E+01 0.16823104816E+01
 0.10501492188E+02 0.36084120699E+02 0.72445973286E+02 0.73904064978E+02 0.66466588183E+02
 0.80770555365E+02 0.72445989690E+02 0.41259010456E+02 0.14679599543E+02 0.28252629217E+01
 0.16266385068E+01 0.51428241029E+01 0.95564116330E+01 0.13132521804E+02 0.15392671558E+02
 0.16444964913E+02 0.16553160304E+02 0.15995277437E+02 0.15026209852E+02 0.13851124537E+02
 0.12615555880E+02 0.11418946439E+02 0.10318632521E+02 0.93456837620E+01 0.85104418432E+01
 0.78114675746E+01 0.72390659323E+01 0.67802045395E+01 0.64197464391E+01 0.61432378266E+01
 0.59368427899E+01 0.57891329845E+01 0.56904163116E+01 0.56340801970E+01 0.56156797501E+01
 0.56340799960E+01 0.56904170267E+01 0.57891349507E+01 0.59368450940E+01 0.61432407660E+01
 0.64197500030E+01 0.67802112675E+01 0.72390734143E+01 0.78114689097E+01 0.85104378501E+01
 0.93456787432E+01 0.10318636920E+02 0.11418948694E+02 0.12615553297E+02 0.13851123795E+02
 0.15026218039E+02 0.15995281564E+02 0.16553158375E+02 0.16444947196E+02 0.15392673404E+02
 0.13132513754E+02 0.95564254400E+01 0.51428492667E+01 0.16266326468E+01 0.28253039810E+01
 0.14679589255E+02 0.41258935032E+02 0.72445999120E+02 0.80770617991E+02 0.73906860602E+02
 0.59519581470E+02 0.36084061220E+02 0.14679562261E+02 0.34251434496E+01 0.13440405530E+01
 0.41854661690E+01 0.84428510210E+01 0.12208950738E+02 0.14787093663E+02 0.16151056167E+02
 0.16517996951E+02 0.16144928750E+02 0.15285606438E+02 0.14154902935E+02 0.12915608787E+02
 0.11680594852E+02 0.10519938163E+02 0.94747947278E+01 0.85623975388E+01 0.77864988091E+01
 0.71406659061E+01 0.66139888308E+01 0.61925637601E+01 0.58624132728E+01 0.56098914703E+01
 0.54231465856E+01 0.52920820960E+01 0.52090807592E+01 0.51688826398E+01 0.51688840107E+01
 0.52090809406E+01 0.52920815529E+01 0.54231436402E+01 0.56098907345E+01 0.58624098187E+01
 0.61925608345E+01 0.66139828079E+01 0.71406586888E+01 0.77864970968E+01 0.85624021099E+01
 0.94747975834E+01 0.10519936668E+02 0.11680590188E+02 0.12915618081E+02 0.14154887789E+02
 0.15285606423E+02 0.16144916616E+02 0.16518022258E+02 0.16151053052E+02 0.14787118327E+02
 0.12208926547E+02 0.84428365258E+01 0.41854594261E+01 0.13439813452E+01 0.34251729197E+01
 0.14679586722E+02 0.36084098416E+02 0.59519546702E+02 0.72454222603E+02 0.72454243912E+02
 0.23486748277E+02 0.10501505654E+02 0.28252722964E+01 0.13440747025E+01 0.38725990595E+01
 0.78549762117E+01 0.11588463196E+02 0.14305789804E+02 0.15870321486E+02 0.16436119275E+02
 0.16226438954E+02 0.15478601585E+02 0.14406888908E+02 0.13183516782E+02 0.11928419811E+02
 0.10725478679E+02 0.96231436440E+01 0.86460394983E+01 0.78028120055E+01 0.70908422499E+01
 0.65014971103E+01 0.60224859953E+01 0.56405686461E+01 0.53424848732E+01 0.51162706891E+01
 0.49514889512E+01 0.48398923191E+01 0.47753632330E+01 0.47542810891E+01 0.47753619914E+01
 0.48398919409E+01 0.49514906745E+01 0.51162719509E+01 0.53424867738E+01 0.56405706557E+01
 0.60224896831E+01 0.65015012447E+01 0.70908512175E+01 0.78028107300E+01 0.86460394408E+01
 0.96231363552E+01 0.10725484665E+02 0.11928414501E+02 0.13183526668E+02 0.14406892139E+02
 0.15478614986E+02 0.16226422970E+02 0.16436120992E+02 0.15870289552E+02 0.14305804531E+02
 0.11588482466E+02 0.78549721680E+01 0.38726748951E+01 0.13440586028E+01 0.28252320500E+01
 0.10501522715E+02 0.23486736093E+02 0.36100695726E+02 0.41281014222E+02 0.36100707917E+02
 0.50855953429E+01 0.16822980399E+01 0.16266779129E+01 0.41854646375E+01 0.78549914205E+01
 0.11370376034E+02 0.14039601396E+02 0.15669841323E+02 0.16350337020E+02 0.16261089846E+02
 0.15610656339E+02 0.14602059272E+02 0.13405755399E+02 0.12148454016E+02 0.10920151067E+02
 0.97760140252E+01 0.87475066023E+01 0.78478339032E+01 0.70783598390E+01 0.64328877587E+01
 0.59010309282E+01 0.54705082641E+01 0.51287084708E+01 0.48637378600E+01 0.46650603453E+01
 0.45239378027E+01 0.44336429013E+01 0.43896420446E+01 0.43896411924E+01 0.44336451557E+01
 0.45239361032E+01 0.46650610955E+01 0.48637342717E+01 0.51287091379E+01 0.54705041436E+01
 0.59010302310E+01 0.64328805896E+01 0.70783557403E+01 0.78478293407E+01 0.87475127434E+01
 0.97760140852E+01 0.10920157811E+02 0.12148438288E+02 0.13405759550E+02 0.14602039027E+02
 0.15610675110E+02 0.16261072240E+02 0.16350377243E+02 0.15669830167E+02 0.14039592376E+02
 0.11370383137E+02 0.78549134335E+01 0.41854774021E+01 0.16266966022E+01 0.16822949130E+01
 0.50855528643E+01 0.10529550797E+02 0.14721482859E+02 0.14721452974E+02 0.10529486875E+02
 0.13214599113E+01 0.25113683005E+01 0.51428054107E+01 0.84428600765E+01 0.11588511493E+02
 0.14039599287E+02 0.15597198230E+02 0.16297116855E+02 0.16270821653E+02 0.15690833519E+02
 0.14739187692E+02 0.13576721459E+02 0.12329770473E+02 0.11091108166E+02 0.99201302496E+01
 0.88538736814E+01 0.79094092046E+01 0.70921284964E+01 0.63981378421E+01 0.58193595644E+01
 0.53444588877E+01 0.49619257843E+01 0.46599110398E+01 0.44282182423E+01 0.42575616888E+01
 0.41410327579E+01 0.40731171884E+01 0.40509267756E+01 0.40731167364E+01 0.41410329978E+01
 0.42575603299E+01 0.44282208359E+01 0.46599110505E+01 0.49619285525E+01 0.53444585060E+01
 0.58193655171E+01 0.63981375509E+01 0.70921409194E+01 0.79094043727E+01 0.88538782637E+01
 0.99201141899E+01 0.11091126250E+02 0.12329766829E+02 0.13576741705E+02 0.14739167648E+02
 0.15690857497E+02 0.16270790098E+02 0.16297123904E+02 0.15597203609E+02 0.14039571504E+02
 0.11588600421E+02 0.84428377185E+01 0.51427935185E+01 0.25113984404E+01 0.13214882112E+01
 0.17247946330E+01 0.28930084564E+01 0.35013415859E+01 0.28930848932E+01 0.17248087141E+01
 0.42707830491E+01 0.67388985359E+01 0.95563829708E+01 0.12208953221E+02 0.14305778287E+02
 0.15669824940E+02 0.16297112415E+02 0.16272071393E+02 0.15728166810E+02 0.14820082469E+02
 0.13692143266E+02 0.12464565280E+02 0.11228000617E+02 0.10044292717E+02 0.89535577385E+01
 0.79764968173E+01 0.71215732566E+01 0.63876772170E+01 0.57686050836E+01 0.52546541477E+01
 0.48350912327E+01 0.44988309091E+01 0.42356792123E+01 0.40365214195E+01 0.38939055249E+01
 0.38020591216E+01 0.37571122328E+01 0.37571169173E+01 0.38020537132E+01 0.38939118354E+01
 0.40365158520E+01 0.42356836167E+01 0.44988237166E+01 0.48350969576E+01 0.52546448575E+01
 0.57686108715E+01 0.63876649179E+01 0.71215748673E+01 0.79764864912E+01 0.89535743130E+01
 0.10044277946E+02 0.11228008131E+02 0.12464537713E+02 0.13692169614E+02 0.14820054055E+02
 0.15728195249E+02 0.16272056096E+02 0.16297102621E+02 0.15669876867E+02 0.14305688370E+02
 0.12208981924E+02 0.95563978937E+01 0.67388599076E+01 0.42707248617E+01 0.25716918618E+01
 0.17267029272E+01 0.14637870167E+01 0.14637422909E+01 0.17266824174E+01 0.25716575230E+01
 0.88392757233E+01 0.11056595345E+02 0.13132511333E+02 0.14787102526E+02 0.15870338400E+02
 0.16350342219E+02 0.16270823509E+02 0.15728173148E+02 0.14846754493E+02 0.13750217574E+02
 0.12547414764E+02 0.11323325164E+02 0.10139430085E+02 0.90370481799E+01 0.80393266731E+01
 0.71573809568E+01 0.63925132898E+01 0.57405920073E+01 0.51934124493E+01 0.47414451954E+01
 0.43742504634E+01 0.40821374218E+01 0.38559941839E+01 0.36883670164E+01 0.35729967162E+01
 0.35056262508E+01 0.34834133144E+01 0.35056278015E+01 0.35729949060E+01 0.36883684064E+01
 0.38559918179E+01 0.40821416903E+01 0.43742474156E+01 0.47414511173E+01 0.51934081738E+01
 0.57406008356E+01 0.63925093602E+01 0.71573968654E+01 0.80393124897E+01 0.90370655351E+01
 0.10139416650E+02 0.11323352515E+02 0.12547392477E+02 0.13750241754E+02 0.14846731778E+02
 0.15728183781E+02 0.16270859777E+02 0.16350268320E+02 0.15870426922E+02 0.14787059850E+02
 0.13132490857E+02 0.11056637501E+02 0.88393409296E+01 0.68204851416E+01 0.52819870075E+01
 0.43588714114E+01 0.40573885739E+01 0.43588567163E+01 0.52820223205E+01 0.68204932165E+01
 0.12732840976E+02 0.14210891222E+02 0.15392675359E+02 0.16151069498E+02 0.16436120481E+02
 0.16261078083E+02 0.15690838839E+02 0.14820075991E+02 0.13750217375E+02 0.12575358045E+02
 0.11372194389E+02 0.10199137607E+02 0.90969100068E+01 0.80900541923E+01 0.71915475367E+01
 0.64049211393E+01 0.57278388433E+01 0.51538240576E+01 0.46744637680E+01 0.42803330739E+01
 0.39621685842E+01 0.37112844112E+01 0.35201091798E+01 0.33823604362E+01 0.32932273798E+01
 0.32494876673E+01 0.32494760504E+01 0.32932382007E+01 0.33823496396E+01 0.35201206339E+01
 0.37112730688E+01 0.39621793809E+01 0.42803197836E+01 0.46744758276E+01 0.51538092322E+01
 0.57278507000E+01 0.64049027404E+01 0.71915614212E+01 0.80900300624E+01 0.90969251565E+01
 0.10199111124E+02 0.11372219766E+02 0.12575329926E+02 0.13750239299E+02 0.14820072272E+02
 0.15690786643E+02 0.16261149325E+02 0.16436034943E+02 0.16151123440E+02 0.15392714585E+02
 0.14210846560E+02 0.12732774291E+02 0.11163241949E+02 0.97418622221E+01 0.86803493152E+01
 0.81183088852E+01 0.81183661372E+01 0.86803567107E+01 0.97418575469E+01 0.11163236799E+02
 0.15276795494E+02 0.16012173042E+02 0.16444947703E+02 0.16518004138E+02 0.16226434045E+02
 0.15610663729E+02 0.14739186911E+02 0.13692145434E+02 0.12547418009E+02 0.11372192355E+02
 0.10219461618E+02 0.91280933206E+01 0.81228418823E+01 0.72178964990E+01 0.64185149120E+01
 0.57240944554E+01 0.51297609984E+01 0.46284117895E+01 0.42116038259E+01 0.38708080937E+01
 0.35977278236E+01 0.33850303359E+01 0.32263326434E+01 0.31166740863E+01 0.30523245475E+01
 0.30311473298E+01 0.30523240419E+01 0.31166756406E+01 0.32263305700E+01 0.33850328297E+01
 0.35977237922E+01 0.38708141618E+01 0.42115984969E+01 0.46284198243E+01 0.51297538947E+01
 0.57241066614E+01 0.64185018229E+01 0.72179216827E+01 0.81228328482E+01 0.91281182950E+01
 0.10219438087E+02 0.11372212172E+02 0.12547409737E+02 0.13692133327E+02 0.14739255045E+02
 0.15610582056E+02 0.16226545272E+02 0.16517935475E+02 0.16444895223E+02 0.16012202333E+02
 0.15276863348E+02 0.14346511155E+02 0.13372089126E+02 0.12521900520E+02 0.11945174063E+02
 0.11741501584E+02 0.11945122583E+02 0.12521855351E+02 0.13372086023E+02 0.14346519928E+02
 0.16538546230E+02 0.16680182376E+02 0.16553179258E+02 0.16144933663E+02 0.15478602246E+02
 0.14602055223E+02 0.13576723763E+02 0.12464562391E+02 0.11323324049E+02 0.10199137541E+02
 0.91280963834E+01 0.81341923636E+01 0.72321569717E+01 0.64286052495E+01 0.57244091746E+01
 0.51162881603E+01 0.45983662511E+01 0.41633813670E+01 0.38035208906E+01 0.35111534078E+01
 0.32791505984E+01 0.31013567802E+01 0.29725883202E+01 0.28889819992E+01 0.28478182928E+01
 0.28478390491E+01 0.28889612409E+01 0.29726087861E+01 0.31013356574E+01 0.32791727082E+01
 0.35111314048E+01 0.38035423796E+01 0.41633577618E+01 0.45983886670E+01 0.51162630464E+01
 0.57244356430E+01 0.64285733503E+01 0.72321699458E+01 0.81341579039E+01 0.91281214320E+01
 0.10199119666E+02 0.11323329466E+02 0.12464581603E+02 0.13576642022E+02 0.14602156348E+02
 0.15478470397E+02 0.16144993294E+02 0.16553243875E+02 0.16680160353E+02 0.16538505412E+02
 0.16181013209E+02 0.15694444081E+02 0.15187318493E+02 0.14771051005E+02 0.14537310102E+02
 0.14537311985E+02 0.14771136420E+02 0.15187384438E+02 0.15694444703E+02 0.16181005173E+02
 0.16795334244E+02 0.16502744205E+02 0.15995276939E+02 0.15285600426E+02 0.14406889490E+02
 0.13405759291E+02 0.12329769213E+02 0.11228003215E+02 0.10139432275E+02 0.90969093495E+01
 0.81228401027E+01 0.72321569883E+01 0.64322661909E+01 0.57254459105E+01 0.51096923047E+01
 0.45805476737E+01 0.41317735334E+01 0.37565683676E+01 0.34478389723E+01 0.31990201021E+01
 0.30040489378E+01 0.28579105129E+01 0.27564571579E+01 0.26968100473E+01 0.26771028057E+01
 0.26968099429E+01 0.27564573252E+01 0.28579107979E+01 0.30040490455E+01 0.31990192101E+01
 0.34478395094E+01 0.37565685054E+01 0.41317755481E+01 0.45805469010E+01 0.51096914561E+01
 0.57254492731E+01 0.64322781527E+01 0.72321653361E+01 0.81228527198E+01 0.90968897884E+01
 0.10139471728E+02 0.11227928703E+02 0.12329911150E+02 0.13405601117E+02 0.14407060122E+02
 0.15285529094E+02 0.15995222696E+02 0.16502782096E+02 0.16795336356E+02 0.16886523811E+02
 0.16817516616E+02 0.16651320168E+02 0.16460869111E+02 0.16314150388E+02 0.16259383573E+02
 0.16314111596E+02 0.16460764948E+02 0.16651240587E+02 0.16817513848E+02 0.16886559435E+02
 0.16340455762E+02 0.15762860313E+02 0.15026214603E+02 0.14154907289E+02 0.13183518066E+02
 0.12148452245E+02 0.11091108895E+02 0.10044292371E+02 0.90370460818E+01 0.80900565032E+01
 0.72178969364E+01 0.64286077690E+01 0.57254442146E+01 0.51077645773E+01 0.45722810598E+01
 0.41139937958E+01 0.37269355448E+01 0.34048557442E+01 0.31416178313E+01 0.29315814358E+01
 0.27697758403E+01 0.26521161867E+01 0.25754447931E+01 0.25376492377E+01 0.25376459043E+01
 0.25754478687E+01 0.26521133423E+01 0.27697779674E+01 0.29315792750E+01 0.31416204099E+01
 0.34048541613E+01 0.37269351701E+01 0.41139933853E+01 0.45722827806E+01 0.51077630078E+01
 0.57254299703E+01 0.64286090008E+01 0.72178703914E+01 0.80900849353E+01 0.90369904081E+01
 0.10044380536E+02 0.11090965170E+02 0.12148592130E+02 0.13183401955E+02 0.14154885574E+02
 0.15026391487E+02 0.15762676790E+02 0.16340527414E+02 0.16751230916E+02 0.17005505252E+02
 0.17131187466E+02 0.17168887084E+02 0.17162273530E+02 0.17148485265E+02 0.17148488595E+02
 0.17162363701E+02 0.17168974096E+02 0.17131322861E+02 0.17005448675E+02 0.16751178325E+02
 0.15444081598E+02 0.14702231018E+02 0.13851118278E+02 0.12915608740E+02 0.11928417747E+02
 0.10920155597E+02 0.99201297000E+01 0.89535597442E+01 0.80393291190E+01 0.71915479262E+01
 0.64185137884E+01 0.57244083618E+01 0.51096936526E+01 0.45722815180E+01 0.41082632445E+01
 0.37126391565E+01 0.33799613127E+01 0.31046764056E+01 0.28815600188E+01 0.27058560957E+01
 0.25735620491E+01 0.24814100485E+01 0.24270865353E+01 0.24091242677E+01 0.24270875848E+01
 0.24814084134E+01 0.25735641516E+01 0.27058539680E+01 0.28815629937E+01 0.31046717594E+01
 0.33799670028E+01 0.37126334580E+01 0.41082677733E+01 0.45722761190E+01 0.51097135506E+01
 0.57244016067E+01 0.64185397589E+01 0.71915244305E+01 0.80393822755E+01 0.89534901928E+01
 0.99202363562E+01 0.10920080808E+02 0.11928428222E+02 0.12915759352E+02 0.13850830694E+02
 0.14702434476E+02 0.15444142361E+02 0.16057707303E+02 0.16536310420E+02 0.16884978058E+02
 0.17119675194E+02 0.17262843518E+02 0.17337402901E+02 0.17360168015E+02 0.17337353111E+02
 0.17262768638E+02 0.17119526109E+02 0.16884873950E+02 0.16536386887E+02 0.16057888028E+02
 0.14323601888E+02 0.13505423495E+02 0.12615561807E+02 0.11680598085E+02 0.10725482142E+02
 0.97760115943E+01 0.88538765867E+01 0.79764964476E+01 0.71573799593E+01 0.64049224251E+01
 0.57240972963E+01 0.51162897081E+01 0.45805478684E+01 0.41139931080E+01 0.37126389517E+01
 0.33718104351E+01 0.30866116492E+01 0.28522523371E+01 0.26643055273E+01 0.25188745784E+01
 0.24127212983E+01 0.23433627965E+01 0.23091054529E+01 0.23091081627E+01 0.23433596671E+01
 0.24127246033E+01 0.25188712655E+01 0.26643083044E+01 0.28522496884E+01 0.30866143622E+01
 0.33718078464E+01 0.37126445069E+01 0.41139875458E+01 0.45805406790E+01 0.51162823639E+01
 0.57240876881E+01 0.64049306410E+01 0.71573464738E+01 0.79765286078E+01 0.88538170262E+01
 0.97760227465E+01 0.10725541351E+02 0.11680417948E+02 0.12615785659E+02 0.13505406620E+02
 0.14323328089E+02 0.15048640405E+02 0.15665455995E+02 0.16165915164E+02 0.16550153620E+02
 0.16824793603E+02 0.16999552990E+02 0.17084092312E+02 0.17084098505E+02 0.16999620012E+02
 0.16824893765E+02 0.16550332221E+02 0.16165983652E+02 0.15665272598E+02 0.15048441242E+02
 0.13134064260E+02 0.12297918565E+02 0.11418944033E+02 0.10519937771E+02 0.96231431127E+01
 0.87475111408E+01 0.79094088098E+01 0.71215765448E+01 0.63925160057E+01 0.57278399290E+01
 0.51297594830E+01 0.45983660820E+01 0.41317745842E+01 0.37269380052E+01 0.33799609889E+01
 0.30866123900E+01 0.28426023502E+01 0.26438495609E+01 0.24866439470E+01 0.23678154728E+01
 0.22848085766E+01 0.22357614518E+01 0.22195391013E+01 0.22357612976E+01 0.22848091897E+01
 0.23678145148E+01 0.24866452030E+01 0.26438481823E+01 0.28426047635E+01 0.30866094418E+01
 0.33799601177E+01 0.37269373528E+01 0.41317882471E+01 0.45983672546E+01 0.51297754189E+01
 0.57278264913E+01 0.63925483710E+01 0.71215495361E+01 0.79094688452E+01 0.87474990429E+01
 0.96231073889E+01 0.10520040804E+02 0.11418855023E+02 0.12297797869E+02 0.13134333762E+02
 0.13907098155E+02 0.14596723792E+02 0.15189261142E+02 0.15675670811E+02 0.16051902652E+02
 0.16317795505E+02 0.16475702758E+02 0.16528015588E+02 0.16475684712E+02 0.16317708806E+02
 0.16051762957E+02 0.15675495273E+02 0.15189281860E+02 0.14597017811E+02 0.13907102640E+02
 0.11980533835E+02 0.11160277414E+02 0.10318636816E+02 0.94747999219E+01 0.86460429352E+01
 0.78478340057E+01 0.70921312881E+01 0.63876778565E+01 0.57405915162E+01 0.51538261348E+01
 0.46284156486E+01 0.41633833806E+01 0.37565679136E+01 0.34048552753E+01 0.31046771515E+01
 0.28522521913E+01 0.26438501945E+01 0.24759985399E+01 0.23456317317E+01 0.22501848943E+01
 0.21876765943E+01 0.21567634755E+01 0.21567625220E+01 0.21876775813E+01 0.22501837197E+01
 0.23456328727E+01 0.24759978026E+01 0.26438499609E+01 0.28522516362E+01 0.31046820124E+01
 0.34048532725E+01 0.37565583851E+01 0.41633767911E+01 0.46284046168E+01 0.51538330157E+01
 0.57405667681E+01 0.63876998880E+01 0.70920767205E+01 0.78478361513E+01 0.86460743456E+01
 0.94747207365E+01 0.10318701873E+02 0.11160365267E+02 0.11980407955E+02 0.12758914545E+02
 0.13476873961E+02 0.14117188234E+02 0.14666802559E+02 0.15113603979E+02 0.15452595343E+02
 0.15679854271E+02 0.15793769148E+02 0.15793774158E+02 0.15679889039E+02 0.15452714446E+02
 0.15113770534E+02 0.14666920716E+02 0.14117030971E+02 0.13476658534E+02 0.12759047576E+02
 0.10923461073E+02 0.10138159184E+02 0.93456870707E+01 0.85623957775E+01 0.78028143780E+01
 0.70783630061E+01 0.63981400281E+01 0.57686078695E+01 0.51934167364E+01 0.46744638489E+01
 0.42116032433E+01 0.38035212803E+01 0.34478411588E+01 0.31416195689E+01 0.28815606317E+01
 0.26643055562E+01 0.24866443701E+01 0.23456318466E+01 0.22387288193E+01 0.21638807073E+01
 0.21195862797E+01 0.21049226896E+01 0.21195863653E+01 0.21638803779E+01 0.22387295979E+01
 0.23456306124E+01 0.24866459743E+01 0.26643050207E+01 0.28815580479E+01 0.31416185957E+01
 0.34478519654E+01 0.38035263232E+01 0.42116170605E+01 0.46744565652E+01 0.51934413638E+01
 0.57685882070E+01 0.63981862344E+01 0.70783669296E+01 0.78027921581E+01 0.85624548580E+01
 0.93456397205E+01 0.10138087999E+02 0.10923544921E+02 0.11684365567E+02 0.12402589341E+02
 0.13060804088E+02 0.13643324700E+02 0.14136600159E+02 0.14530085406E+02 0.14816216642E+02
 0.14989879710E+02 0.15048087045E+02 0.14989862764E+02 0.14816158085E+02 0.14529929020E+02
 0.14136455244E+02 0.13643325295E+02 0.13060980890E+02 0.12402657022E+02 0.11684275912E+02
 0.99956498205E+01 0.92513602523E+01 0.85104477653E+01 0.77865047246E+01 0.70908471561E+01
 0.64328893714E+01 0.58193625741E+01 0.52546555663E+01 0.47414459557E+01 0.42803359999E+01
 0.38708118955E+01 0.35111555530E+01 0.31990200957E+01 0.29315811314E+01 0.27058575624E+01
 0.25188748892E+01 0.23678155622E+01 0.22501852432E+01 0.21638808065E+01 0.21072760863E+01
 0.20792529353E+01 0.20792545244E+01 0.21072745568E+01 0.21638824670E+01 0.22501834319E+01
 0.23678171908E+01 0.25188727638E+01 0.27058624950E+01 0.29315787370E+01 0.31990135811E+01
 0.35111471069E+01 0.38708015429E+01 0.42803371076E+01 0.47414263103E+01 0.52546688656E+01
 0.58193220616E+01 0.64328884657E+01 0.70908603239E+01 0.77864556358E+01 0.85104904652E+01
 0.92514119056E+01 0.99955862492E+01 0.10727639048E+02 0.11431200171E+02 0.12089618358E+02
 0.12686824443E+02 0.13207989278E+02 0.13640460151E+02 0.13973867690E+02 0.14200394587E+02
 0.14314903950E+02 0.14314914430E+02 0.14200426502E+02 0.13973964079E+02 0.13640615998E+02
 0.13208053576E+02 0.12686757723E+02 0.12089535860E+02 0.11431153497E+02 0.10727699424E+02
 0.92075436082E+01 0.85042845599E+01 0.78114684099E+01 0.71406680870E+01 0.65014983015E+01
 0.59010363697E+01 0.53444613673E+01 0.48350947661E+01 0.43742542036E+01 0.39621698440E+01
 0.35977271997E+01 0.32791517890E+01 0.30040513986E+01 0.27697774513E+01 0.25735623681E+01
 0.24127222737E+01 0.22848090237E+01 0.21876766929E+01 0.21195864911E+01 0.20792528947E+01
 0.20658986563E+01 0.20792529435E+01 0.21195863489E+01 0.21876764090E+01 0.22848102437E+01
 0.24127212503E+01 0.25735599169E+01 0.27697775794E+01 0.30040612452E+01 0.32791565853E+01
 0.35977404743E+01 0.39621669801E+01 0.43742776561E+01 0.48350803758E+01 0.53445030922E+01
 0.59010343055E+01 0.65014856651E+01 0.71407109177E+01 0.78114342228E+01 0.85042369084E+01
 0.92076083904E+01 0.99082126863E+01 0.10591336385E+02 0.11241472562E+02 0.11842996325E+02
 0.12380775891E+02 0.12841136577E+02 0.13212105222E+02 0.13484090370E+02 0.13650107780E+02
 0.13705927944E+02 0.13650087800E+02 0.13484025457E+02 0.13211998801E+02 0.12841031012E+02
 0.12380778846E+02 0.11843023644E+02 0.11241522739E+02 0.10591386211E+02 0.99081708984E+01
 0.85573096073E+01 0.78901025417E+01 0.72390710496E+01 0.66139975808E+01 0.60224907431E+01
 0.54705115108E+01 0.49619290044E+01 0.44988341076E+01 0.40821383078E+01 0.37112883002E+01
 0.33850338994E+01 0.31013588879E+01 0.28579110147E+01 0.26521164577E+01 0.24814114076E+01
 0.23433627761E+01 0.22357623191E+01 0.21567635519E+01 0.21049228801E+01 0.20792547309E+01
 0.20792531371E+01 0.21049242961E+01 0.21567628025E+01 0.22357625049E+01 0.23433615393E+01
 0.24814167625E+01 0.26521142504E+01 0.28579028194E+01 0.31013505576E+01 0.33850244958E+01
 0.37112870282E+01 0.40821182811E+01 0.44988415831E+01 0.49618923464E+01 0.54705109753E+01
 0.60225027749E+01 0.66139662371E+01 0.72390993152E+01 0.78901365823E+01 0.85572629964E+01
 0.92288402798E+01 0.98916846427E+01 0.10531414018E+02 0.11133170155E+02 0.11682069664E+02
 0.12164041834E+02 0.12566293136E+02 0.12878038348E+02 0.13090773235E+02 0.13198635339E+02
 0.13198644457E+02 0.13090818633E+02 0.12878118728E+02 0.12566367487E+02 0.12164094092E+02
 0.11682078664E+02 0.11133161201E+02 0.10531370101E+02 0.98916234515E+01 0.92288949442E+01
 0.80340732062E+01 0.73968438396E+01 0.67802116193E+01 0.61925635502E+01 0.56405739575E+01
 0.51287119518E+01 0.46599159102E+01 0.42356812192E+01 0.38559992857E+01 0.35201098185E+01
 0.32263339067E+01 0.29725884348E+01 0.27564603948E+01 0.25754455744E+01 0.24270880988E+01
 0.23091055237E+01 0.22195398474E+01 0.21567630028E+01 0.21195865563E+01 0.21072741872E+01
 0.21195868871E+01 0.21567622284E+01 0.22195407114E+01 0.23091058387E+01 0.24270840413E+01
 0.25754456087E+01 0.27564700261E+01 0.29725969264E+01 0.32263450738E+01 0.35201097739E+01
 0.38560203083E+01 0.42356749830E+01 0.46599540471E+01 0.51287109262E+01 0.56405637275E+01
 0.61925910870E+01 0.67801748032E+01 0.73968266877E+01 0.80341141882E+01 0.86817728550E+01
 0.93278913359E+01 0.99591280874E+01 0.10561381184E+02 0.11120212537E+02 0.11621445806E+02
 0.12051804761E+02 0.12399651260E+02 0.12655322572E+02 0.12811649802E+02 0.12864242312E+02
 0.12811618540E+02 0.12655262905E+02 0.12399589523E+02 0.12051772760E+02 0.11621388243E+02
 0.11120198660E+02 0.10561383457E+02 0.99591919629E+01 0.93279198080E+01 0.86817349823E+01
 0.76235006701E+01 0.70092112476E+01 0.64197561280E+01 0.58624203475E+01 0.53424922032E+01
 0.48637409594E+01 0.44282231965E+01 0.40365248704E+01 0.36883687330E+01 0.33823635220E+01
 0.31166782851E+01 0.28889842201E+01 0.26968108683E+01 0.25376493331E+01 0.24091254751E+01
 0.23091089308E+01 0.22357611701E+01 0.21876777724E+01 0.21638807410E+01 0.21638826353E+01
 0.21876759346E+01 0.22357630510E+01 0.23091060133E+01 0.24091321413E+01 0.25376468320E+01
 0.26968043898E+01 0.28889723429E+01 0.31166683083E+01 0.33823599127E+01 0.36883514367E+01
 0.40365266716E+01 0.44281874194E+01 0.48637389956E+01 0.53425028831E+01 0.58623980520E+01
 0.64197883896E+01 0.70092372360E+01 0.76234445491E+01 0.82532741185E+01 0.88877835251E+01
 0.95145806513E+01 0.10120174491E+02 0.10690457112E+02 0.11211303342E+02 0.11669145676E+02
 0.12051742770E+02 0.12348522471E+02 0.12551208232E+02 0.12654036786E+02 0.12654058732E+02
 0.12551251390E+02 0.12348571795E+02 0.12051770048E+02 0.11669183424E+02 0.11211358344E+02
 0.10690479882E+02 0.10120139178E+02 0.95145496876E+01 0.88877598094E+01 0.82532927574E+01
 0.73088783322E+01 0.67116825680E+01 0.61432402447E+01 0.56098967939E+01 0.51162729954E+01
 0.46650667354E+01 0.42575641680E+01 0.38939099802E+01 0.35730002466E+01 0.32932301853E+01
 0.30523236380E+01 0.28478201185E+01 0.26771043844E+01 0.25376484152E+01 0.24270872493E+01
 0.23433611322E+01 0.22848092676E+01 0.22501848606E+01 0.22387285009E+01 0.22501847179E+01
 0.22848096564E+01 0.23433616288E+01 0.24270829502E+01 0.25376479541E+01 0.26771139142E+01
 0.28478291158E+01 0.30523374127E+01 0.32932330435E+01 0.35730202216E+01 0.38939060805E+01
 0.42576026688E+01 0.46650662282E+01 0.51162675581E+01 0.56099112422E+01 0.61432101203E+01
 0.67116634243E+01 0.73089179281E+01 0.79267615483E+01 0.85550527684E+01 0.91821356941E+01
 0.97950182981E+01 0.10379743889E+02 0.10922261813E+02 0.11408807729E+02 0.11826557054E+02
 0.12164113438E+02 0.12412193893E+02 0.12563855438E+02 0.12614869265E+02 0.12563821996E+02
 0.12412156462E+02 0.12164092604E+02 0.11826523372E+02 0.11408773809E+02 0.10922197596E+02
 0.10379755747E+02 0.97950377432E+01 0.91821441051E+01 0.85550971624E+01 0.79267266642E+01
 0.70742974900E+01 0.64890757091E+01 0.59368501967E+01 0.54231564705E+01 0.49514953392E+01
 0.45239433092E+01 0.41410364658E+01 0.38020640269E+01 0.35056267181E+01 0.32494923039E+01
 0.30311506506E+01 0.28478419965E+01 0.26968100155E+01 0.25754481428E+01 0.24814093976E+01
 0.24127251280E+01 0.23678139662E+01 0.23456335434E+01 0.23456304151E+01 0.23678168124E+01
 0.24127211423E+01 0.24814174343E+01 0.25754452994E+01 0.26968043265E+01 0.28478279437E+01
 0.30311413978E+01 0.32494828224E+01 0.35056106660E+01 0.38020615181E+01 0.41410042719E+01
 0.45239383075E+01 0.49515045824E+01 0.54231393921E+01 0.59368866617E+01 0.64890852374E+01
 0.70742614556E+01 0.76849565521E+01 0.83117802811E+01 0.89435876340E+01 0.95676923928E+01
 0.10170318174E+02 0.10737292606E+02 0.11254518018E+02 0.11708570449E+02 0.12087356353E+02
 0.12380764023E+02 0.12580872191E+02 0.12682309591E+02 0.12682323789E+02 0.12580901254E+02
 0.12380779955E+02 0.12087380934E+02 0.11708603618E+02 0.11254559345E+02 0.10737327139E+02
 0.10170307455E+02 0.95677000623E+01 0.89435594318E+01 0.83117563890E+01 0.76849761899E+01
 0.69044156493E+01 0.63281333916E+01 0.57891359716E+01 0.52920878274E+01 0.48398949601E+01
 0.44336490868E+01 0.40731201394E+01 0.37571164620E+01 0.34834167345E+01 0.32494780544E+01
 0.30523236892E+01 0.28889618613E+01 0.27564598385E+01 0.26521151469E+01 0.25735640192E+01
 0.25188720661E+01 0.24866456398E+01 0.24759976771E+01 0.24866461571E+01 0.25188728299E+01
 0.25735592530E+01 0.26521140482E+01 0.27564692071E+01 0.28889727851E+01 0.30523379056E+01
 0.32494838328E+01 0.34834389411E+01 0.37571158247E+01 0.40731576543E+01 0.44336468638E+01
 0.48398938223E+01 0.52920944603E+01 0.57891085688E+01 0.63281175808E+01 0.69044609722E+01
 0.75114278621E+01 0.81402387844E+01 0.87802069792E+01 0.94187697711E+01 0.10042271492E+02
 0.10636295327E+02 0.11186128663E+02 0.11677824427E+02 0.12098731323E+02 0.12437997257E+02
 0.12686765511E+02 0.12838638128E+02 0.12889684968E+02 0.12838625073E+02 0.12686753699E+02
 0.12437978071E+02 0.12098706579E+02 0.11677782923E+02 0.11186113023E+02 0.10636266982E+02
 0.10042255922E+02 0.94187822310E+01 0.87802176603E+01 0.81402659085E+01 0.75114205243E+01
 0.67865721878E+01 0.62175507241E+01 0.56904228750E+01 0.52090916149E+01 0.47753691051E+01
 0.43896485303E+01 0.40509297271E+01 0.37571225409E+01 0.35056280543E+01 0.32932427858E+01