unknown system                          
   1.00000000000000     
     3.867484    0.000000    0.000000
     1.933742    3.349340    0.000000
     0.000000   -2.232891    3.157788
   Si
     2
Direct
  0.000000  0.000000  0.000000
  0.750000  0.500000  0.750000
 
   60   60   60
 0.20553277860E+04 0.89454188673E+02 0.94893242243E+02 0.61338605397E+02 0.22931060437E+02
 0.42276253333E+01 0.20152889096E+00 0.28751085235E+01 0.73329976281E+01 0.11346421967E+02
 0.14207384814E+02 0.15909059649E+02 0.16650686615E+02 0.16659341729E+02 0.16161691663E+02
 0.15357671806E+02 0.14411858198E+02 0.13429593346E+02 0.12454418483E+02 0.11519213587E+02
 0.10649452201E+02 0.98618646898E+01 0.91647367892E+01 0.85596057741E+01 0.80437475519E+01
 0.76127390904E+01 0.72624908866E+01 0.69903937823E+01 0.67955289489E+01 0.66781654400E+01
 0.66389427491E+01 0.66781654400E+01 0.67955289489E+01 0.69903937823E+01 0.72624908866E+01
 0.76127390904E+01 0.80437475519E+01 0.85596057741E+01 0.91647367892E+01 0.98618646898E+01
 0.10649452201E+02 0.11519213587E+02 0.12454418483E+02 0.13429593346E+02 0.14411858198E+02
 0.15357671806E+02 0.16161691663E+02 0.16659341729E+02 0.16650686615E+02 0.15909059649E+02
 0.14207384814E+02 0.11346421967E+02 0.73329976281E+01 0.28751085235E+01 0.20152889096E+00
 0.42276253333E+01 0.22931060437E+02 0.61338605397E+02 0.94893242243E+02 0.89454188673E+02
 0.89454197935E+02 0.93946307030E+02 0.76754366534E+02 0.35724853569E+02 0.93887603554E+01
 0.24448876159E+00 0.69515762272E+00 0.46597898311E+01 0.89526005412E+01 0.12321801407E+02
 0.14513242877E+02 0.15663460185E+02 0.15984319283E+02 0.15700628872E+02 0.15023841622E+02
 0.14133871975E+02 0.13169044693E+02 0.12195184993E+02 0.11247825692E+02 0.10356069722E+02
 0.95405598065E+01 0.88130638510E+01 0.81776318745E+01 0.76328249885E+01 0.71743167291E+01
 0.67972083263E+01 0.64976037055E+01 0.62732711487E+01 0.61234980081E+01 0.60484523970E+01
 0.60484523970E+01 0.61234980081E+01 0.62732711487E+01 0.64976037055E+01 0.67972083263E+01
 0.71743167291E+01 0.76328249885E+01 0.81776318745E+01 0.88130638510E+01 0.95405598065E+01
 0.10356069722E+02 0.11247825692E+02 0.12195184993E+02 0.13169044693E+02 0.14133871975E+02
 0.15023841622E+02 0.15700628872E+02 0.15984319283E+02 0.15663460185E+02 0.14513242877E+02
 0.12321801407E+02 0.89526005412E+01 0.46597898311E+01 0.69515762272E+00 0.24448876159E+00
 0.93887603554E+01 0.35724853569E+02 0.76754366534E+02 0.93946307030E+02 0.89454197935E+02
 0.94893258101E+02 0.76754365031E+02 0.41089151424E+02 0.13439683313E+02 0.11639402884E+01
 -.49760475884E+00 0.26246158770E+01 0.68692168254E+01 0.10541188980E+02 0.13115762544E+02
 0.14619898577E+02 0.15235490688E+02 0.15171764963E+02 0.14640286586E+02 0.13829124869E+02
 0.12894519765E+02 0.11932140550E+02 0.10982773139E+02 0.10078189188E+02 0.92423709881E+01
 0.84904069246E+01 0.78290503954E+01 0.72585754497E+01 0.67752760714E+01 0.63739261408E+01
 0.60496742377E+01 0.57991010107E+01 0.56204382898E+01 0.55131728849E+01 0.54773842671E+01
 0.55131728849E+01 0.56204382898E+01 0.57991010107E+01 0.60496742377E+01 0.63739261408E+01
 0.67752760714E+01 0.72585754497E+01 0.78290503954E+01 0.84904069246E+01 0.92423709881E+01
 0.10078189188E+02 0.10982773139E+02 0.11932140550E+02 0.12894519765E+02 0.13829124869E+02
 0.14640286586E+02 0.15171764963E+02 0.15235490688E+02 0.14619898577E+02 0.13115762544E+02
 0.10541188980E+02 0.68692168254E+01 0.26246158770E+01 -.49760475884E+00 0.11639402884E+01
 0.13439683313E+02 0.41089151424E+02 0.76754365031E+02 0.94893258101E+02 0.94037026048E+02
 0.61338595256E+02 0.35724844669E+02 0.13439680096E+02 0.16828085906E+01 -.94562585182E+00
 0.13893175104E+01 0.53432447816E+01 0.90781382759E+01 0.11873399563E+02 0.13631160726E+02
 0.14485514726E+02 0.14618989915E+02 0.14230717272E+02 0.13508697939E+02 0.12614960231E+02
 0.11669930057E+02 0.10725783287E+02 0.98158073362E+01 0.89664880236E+01 0.81957759276E+01
 0.75130326108E+01 0.69204357505E+01 0.64152621820E+01 0.59923668004E+01 0.56462835523E+01
 0.53725993990E+01 0.51685098860E+01 0.50326922254E+01 0.49647813781E+01 0.49647813781E+01
 0.50326922254E+01 0.51685098860E+01 0.53725993990E+01 0.56462835523E+01 0.59923668004E+01
 0.64152621820E+01 0.69204357505E+01 0.75130326108E+01 0.81957759276E+01 0.89664880236E+01
 0.98158073362E+01 0.10725783287E+02 0.11669930057E+02 0.12614960231E+02 0.13508697939E+02
 0.14230717272E+02 0.14618989915E+02 0.14485514726E+02 0.13631160726E+02 0.11873399563E+02
 0.90781382759E+01 0.53432447816E+01 0.13893175104E+01 -.94562585182E+00 0.16828085906E+01
 0.13439680096E+02 0.35724844669E+02 0.61338595256E+02 0.77011428218E+02 0.77011428218E+02
 0.22931046483E+02 0.93887526284E+01 0.11639377400E+01 -.94562610957E+00 0.98105101558E+00
 0.45414990247E+01 0.81177717069E+01 0.10940142291E+02 0.12815257452E+02 0.13818983112E+02
 0.14098644629E+02 0.13830005997E+02 0.13191425093E+02 0.12343769977E+02 0.11416921269E+02
 0.10481439424E+02 0.95708769848E+01 0.87132084956E+01 0.79285545402E+01 0.72285385027E+01
 0.66172014073E+01 0.60929845153E+01 0.56511207962E+01 0.52858342152E+01 0.49919407131E+01
 0.47656870745E+01 0.46048876839E+01 0.45085795923E+01 0.44764883032E+01 0.45085795923E+01
 0.46048876839E+01 0.47656870745E+01 0.49919407131E+01 0.52858342152E+01 0.56511207962E+01
 0.60929845153E+01 0.66172014073E+01 0.72285385027E+01 0.79285545402E+01 0.87132084956E+01
 0.95708769848E+01 0.10481439424E+02 0.11416921269E+02 0.12343769977E+02 0.13191425093E+02
 0.13830005997E+02 0.14098644629E+02 0.13818983112E+02 0.12815257452E+02 0.10940142291E+02
 0.81177717069E+01 0.45414990247E+01 0.98105101558E+00 -.94562610957E+00 0.11639377400E+01
 0.93887526284E+01 0.22931046483E+02 0.36197781856E+02 0.41728476402E+02 0.36197781856E+02
 0.42276173920E+01 0.24448552655E+00 -.49760509181E+00 0.13893181318E+01 0.45414994937E+01
 0.77834846227E+01 0.10439384006E+02 0.12277059986E+02 0.13318561424E+02 0.13670939184E+02
 0.13479125456E+02 0.12903088324E+02 0.12094101062E+02 0.11184469781E+02 0.10256984096E+02
 0.93475160949E+01 0.84844314037E+01 0.76891734622E+01 0.69750856782E+01 0.63478308914E+01
 0.58070199616E+01 0.53484326682E+01 0.49662207222E+01 0.46546465509E+01 0.44091381581E+01
 0.42266581984E+01 0.41055491033E+01 0.40451018563E+01 0.40451018563E+01 0.41055491033E+01
 0.42266581984E+01 0.44091381581E+01 0.46546465509E+01 0.49662207222E+01 0.53484326682E+01
 0.58070199616E+01 0.63478308914E+01 0.69750856782E+01 0.76891734622E+01 0.84844314037E+01
 0.93475160949E+01 0.10256984096E+02 0.11184469781E+02 0.12094101062E+02 0.12903088324E+02
 0.13479125456E+02 0.13670939184E+02 0.13318561424E+02 0.12277059986E+02 0.10439384006E+02
 0.77834846227E+01 0.45414994937E+01 0.13893181318E+01 -.49760509181E+00 0.24448552655E+00
 0.42276173920E+01 0.10096194330E+02 0.14529537144E+02 0.14529537144E+02 0.10096194330E+02
 0.20152712540E+00 0.69515811360E+00 0.26246173293E+01 0.53432461834E+01 0.81177726063E+01
 0.10439384376E+02 0.12089024807E+02 0.13050109786E+02 0.13389489193E+02 0.13218034593E+02
 0.12671301034E+02 0.11885516552E+02 0.10985465293E+02 0.10061437158E+02 0.91515841730E+01
 0.82835872881E+01 0.74792995162E+01 0.67531161153E+01 0.61119254317E+01 0.55563598058E+01
 0.50827874797E+01 0.46854426013E+01 0.43582210619E+01 0.40958802807E+01 0.38945927542E+01
 0.37519670924E+01 0.36667424167E+01 0.36383805344E+01 0.36667424167E+01 0.37519670924E+01
 0.38945927542E+01 0.40958802807E+01 0.43582210619E+01 0.46854426013E+01 0.50827874797E+01
 0.55563598058E+01 0.61119254317E+01 0.67531161153E+01 0.74792995162E+01 0.82835872881E+01
 0.91515841730E+01 0.10061437158E+02 0.10985465293E+02 0.11885516552E+02 0.12671301034E+02
 0.13218034593E+02 0.13389489193E+02 0.13050109786E+02 0.12089024807E+02 0.10439384376E+02
 0.81177726063E+01 0.53432461834E+01 0.26246173293E+01 0.69515811360E+00 0.20152712540E+00
 0.11763311935E+01 0.27131907973E+01 0.34483490883E+01 0.27131907973E+01 0.11763311935E+01
 0.28751104267E+01 0.46597922761E+01 0.68692191035E+01 0.90781399852E+01 0.10940143353E+02
 0.12277060522E+02 0.13050109973E+02 0.13291273732E+02 0.13078686650E+02 0.12520823557E+02
 0.11734650513E+02 0.10832506056E+02 0.99042895848E+01 0.89898067572E+01 0.81151118219E+01
 0.73015831661E+01 0.65639505242E+01 0.59098338280E+01 0.53406216409E+01 0.48532006257E+01
 0.44419558327E+01 0.41005565627E+01 0.38232347250E+01 0.36054682617E+01 0.34441461539E+01
 0.33373869437E+01 0.32842071634E+01 0.32842071634E+01 0.33373869437E+01 0.34441461539E+01
 0.36054682617E+01 0.38232347250E+01 0.41005565627E+01 0.44419558327E+01 0.48532006257E+01
 0.53406216409E+01 0.59098338280E+01 0.65639505242E+01 0.73015831661E+01 0.81151118219E+01
 0.89898067572E+01 0.99042895848E+01 0.10832506056E+02 0.11734650513E+02 0.12520823557E+02
 0.13078686650E+02 0.13291273732E+02 0.13050109973E+02 0.12277060522E+02 0.10940143353E+02
 0.90781399852E+01 0.68692191035E+01 0.46597922761E+01 0.28751104267E+01 0.18200619012E+01
 0.14702557578E+01 0.14745227075E+01 0.14745227075E+01 0.14702557578E+01 0.18200619012E+01
 0.73330009387E+01 0.89526035106E+01 0.10541191312E+02 0.11873401183E+02 0.12815258451E+02
 0.13318561956E+02 0.13389489419E+02 0.13078686712E+02 0.12468653387E+02 0.11655384668E+02
 0.10736090854E+02 0.97941028169E+01 0.88687239766E+01 0.79836855673E+01 0.71591343637E+01
 0.64094501579E+01 0.57424571624E+01 0.51599629755E+01 0.46592168871E+01 0.42347445581E+01
 0.38800734912E+01 0.35890343599E+01 0.33565217023E+01 0.31787621576E+01 0.30532371942E+01
 0.29784349064E+01 0.29535792704E+01 0.29784349064E+01 0.30532371942E+01 0.31787621576E+01
 0.33565217023E+01 0.35890343599E+01 0.38800734912E+01 0.42347445581E+01 0.46592168871E+01
 0.51599629755E+01 0.57424571624E+01 0.64094501579E+01 0.71591343637E+01 0.79836855673E+01
 0.88687239766E+01 0.97941028169E+01 0.10736090854E+02 0.11655384668E+02 0.12468653387E+02
 0.13078686712E+02 0.13389489419E+02 0.13318561956E+02 0.12815258451E+02 0.11873401183E+02
 0.10541191312E+02 0.89526035106E+01 0.73330009387E+01 0.59351569096E+01 0.49381470212E+01
 0.43830960251E+01 0.42118492087E+01 0.43830960251E+01 0.49381470212E+01 0.59351569096E+01
 0.11346425301E+02 0.12321804094E+02 0.13115764523E+02 0.13631162055E+02 0.13818983910E+02
 0.13670939598E+02 0.13218034767E+02 0.12520823609E+02 0.11655384675E+02 0.10703147111E+02
 0.97372967641E+01 0.87937230384E+01 0.78934788712E+01 0.70549422369E+01 0.62915744043E+01
 0.56109119196E+01 0.50148245136E+01 0.45007172249E+01 0.40631842248E+01 0.36956411893E+01
 0.33916083188E+01 0.31455044436E+01 0.29529778867E+01 0.28109033395E+01 0.27172054600E+01
 0.26706441000E+01 0.26706441000E+01 0.27172054600E+01 0.28109033395E+01 0.29529778867E+01
 0.31455044436E+01 0.33916083188E+01 0.36956411893E+01 0.40631842248E+01 0.45007172249E+01
 0.50148245136E+01 0.56109119196E+01 0.62915744043E+01 0.70549422369E+01 0.78934788712E+01
 0.87937230384E+01 0.97372967641E+01 0.10703147111E+02 0.11655384675E+02 0.12520823609E+02
 0.13218034767E+02 0.13670939598E+02 0.13818983910E+02 0.13631162055E+02 0.13115764523E+02
 0.12321804094E+02 0.11346425301E+02 0.10334165530E+02 0.94428215303E+01 0.87967565184E+01
 0.84629996643E+01 0.84629996643E+01 0.87967565184E+01 0.94428215303E+01 0.10334165530E+02
 0.14207387566E+02 0.14513244988E+02 0.14619900066E+02 0.14485515676E+02 0.14098645163E+02
 0.13479125708E+02 0.12671301125E+02 0.11734650531E+02 0.10736090854E+02 0.97372967641E+01
 0.87683172007E+01 0.78475664735E+01 0.69914075808E+01 0.62120048518E+01 0.55162188411E+01
 0.49056615351E+01 0.43776780630E+01 0.39268235525E+01 0.35463869140E+01 0.32296298457E+01
 0.29705834184E+01 0.27644084856E+01 0.26074355732E+01 0.24970376589E+01 0.24314651357E+01
 0.24097164286E+01 0.24314651357E+01 0.24970376589E+01 0.26074355732E+01 0.27644084856E+01
 0.29705834184E+01 0.32296298457E+01 0.35463869140E+01 0.39268235525E+01 0.43776780630E+01
 0.49056615351E+01 0.55162188411E+01 0.62120048518E+01 0.69914075808E+01 0.78475664735E+01
 0.87683172007E+01 0.97372967641E+01 0.10736090854E+02 0.11734650531E+02 0.12671301125E+02
 0.13479125708E+02 0.14098645163E+02 0.14485515676E+02 0.14619900066E+02 0.14513244988E+02
 0.14207387566E+02 0.13770707106E+02 0.13293091809E+02 0.12870721014E+02 0.12583872043E+02
 0.12482836487E+02 0.12583872043E+02 0.12870721014E+02 0.13293091809E+02 0.13770707106E+02
 0.15909061674E+02 0.15663461659E+02 0.15235491662E+02 0.14618990485E+02 0.13830006279E+02
 0.12903088431E+02 0.11885516574E+02 0.10832506056E+02 0.97941028169E+01 0.87937230384E+01
 0.78475664735E+01 0.69700560754E+01 0.61719219553E+01 0.54591217260E+01 0.48327819517E+01
 0.42900102111E+01 0.38252144074E+01 0.34315173339E+01 0.31019404712E+01 0.28301862999E+01
 0.26110073527E+01 0.24402648280E+01 0.23148260385E+01 0.22324311194E+01 0.21916014299E+01
 0.21916014299E+01 0.22324311194E+01 0.23148260385E+01 0.24402648280E+01 0.26110073527E+01
 0.28301862999E+01 0.31019404712E+01 0.34315173339E+01 0.38252144074E+01 0.42900102111E+01
 0.48327819517E+01 0.54591217260E+01 0.61719219553E+01 0.69700560754E+01 0.78475664735E+01
 0.87937230384E+01 0.97941028169E+01 0.10832506056E+02 0.11885516574E+02 0.12903088431E+02
 0.13830006279E+02 0.14618990485E+02 0.15235491662E+02 0.15663461659E+02 0.15909061674E+02
 0.15999738872E+02 0.15978564865E+02 0.15897202136E+02 0.15807434479E+02 0.15751090876E+02
 0.15751090876E+02 0.15807434479E+02 0.15897202136E+02 0.15978564865E+02 0.15999738872E+02
 0.16650687921E+02 0.15984320163E+02 0.15171765489E+02 0.14230717534E+02 0.13191425190E+02
 0.12094101078E+02 0.10985465293E+02 0.99042895848E+01 0.88687239766E+01 0.78934788712E+01
 0.69914075808E+01 0.61719219553E+01 0.54400446439E+01 0.47963241995E+01 0.42375348297E+01
 0.37578672826E+01 0.33502440316E+01 0.30074477956E+01 0.27228852251E+01 0.24909569895E+01
 0.23071226552E+01 0.21678047386E+01 0.20702666171E+01 0.20125432940E+01 0.19934369363E+01
 0.20125432940E+01 0.20702666171E+01 0.21678047386E+01 0.23071226552E+01 0.24909569895E+01
 0.27228852251E+01 0.30074477956E+01 0.33502440316E+01 0.37578672826E+01 0.42375348297E+01
 0.47963241995E+01 0.54400446439E+01 0.61719219553E+01 0.69914075808E+01 0.78934788712E+01
 0.88687239766E+01 0.99042895848E+01 0.10985465293E+02 0.12094101078E+02 0.13191425190E+02
 0.14230717534E+02 0.15171765489E+02 0.15984320163E+02 0.16650687921E+02 0.17167495776E+02
 0.17544684816E+02 0.17801699909E+02 0.17962043559E+02 0.18047739188E+02 0.18074414529E+02
 0.18047739188E+02 0.17962043559E+02 0.17801699909E+02 0.17544684816E+02 0.17167495776E+02
 0.16659342432E+02 0.15700629290E+02 0.14640286789E+02 0.13508698006E+02 0.12343769977E+02
 0.11184469781E+02 0.10061437158E+02 0.89898067572E+01 0.79836855673E+01 0.70549422369E+01
 0.62120048518E+01 0.54591217260E+01 0.47963241995E+01 0.42200687897E+01 0.37243314552E+01
 0.33018379171E+01 0.29451427460E+01 0.26473780058E+01 0.24026274977E+01 0.22059981737E+01
 0.20535243972E+01 0.19420426146E+01 0.18691258523E+01 0.18330988531E+01 0.18330988531E+01
 0.18691258523E+01 0.19420426146E+01 0.20535243972E+01 0.22059981737E+01 0.24026274977E+01
 0.26473780058E+01 0.29451427460E+01 0.33018379171E+01 0.37243314552E+01 0.42200687897E+01
 0.47963241995E+01 0.54591217260E+01 0.62120048518E+01 0.70549422369E+01 0.79836855673E+01
 0.89898067572E+01 0.10061437158E+02 0.11184469781E+02 0.12343769977E+02 0.13508698006E+02
 0.14640286789E+02 0.15700629290E+02 0.16659342432E+02 0.17493984956E+02 0.18190756474E+02
 0.18743812690E+02 0.19153327203E+02 0.19422756899E+02 0.19556181658E+02 0.19556181658E+02
 0.19422756899E+02 0.19153327203E+02 0.18743812690E+02 0.18190756474E+02 0.17493984956E+02
 0.16161691942E+02 0.15023841745E+02 0.13829124899E+02 0.12614960231E+02 0.11416921269E+02
 0.10256984096E+02 0.91515841730E+01 0.81151118219E+01 0.71591343637E+01 0.62915744043E+01
 0.55162188411E+01 0.48327819517E+01 0.42375348297E+01 0.37243314552E+01 0.32857678370E+01
 0.29142177442E+01 0.26025718696E+01 0.23446246188E+01 0.21351617333E+01 0.19698706727E+01
 0.18452090899E+01 0.17583300683E+01 0.17070988534E+01 0.16901748133E+01 0.17070988534E+01
 0.17583300683E+01 0.18452090899E+01 0.19698706727E+01 0.21351617333E+01 0.23446246188E+01
 0.26025718696E+01 0.29142177442E+01 0.32857678370E+01 0.37243314552E+01 0.42375348297E+01
 0.48327819517E+01 0.55162188411E+01 0.62915744043E+01 0.71591343637E+01 0.81151118219E+01
 0.91515841730E+01 0.10256984096E+02 0.11416921269E+02 0.12614960231E+02 0.13829124899E+02
 0.15023841745E+02 0.16161691942E+02 0.17209588756E+02 0.18139276427E+02 0.18927783292E+02
 0.19557432590E+02 0.20015482243E+02 0.20293495559E+02 0.20386681596E+02 0.20293495559E+02
 0.20015482243E+02 0.19557432590E+02 0.18927783292E+02 0.18139276427E+02 0.17209588756E+02
 0.15357671854E+02 0.14133871975E+02 0.12894519765E+02 0.11669930057E+02 0.10481439424E+02
 0.93475160949E+01 0.82835872881E+01 0.73015831661E+01 0.64094501579E+01 0.56109119196E+01
 0.49056615351E+01 0.42900102111E+01 0.37578672826E+01 0.33018379171E+01 0.29142177442E+01
 0.25877245963E+01 0.23159049424E+01 0.20932504826E+01 0.19151289079E+01 0.17776551284E+01
 0.16776054004E+01 0.16124226549E+01 0.15803017389E+01 0.15803017389E+01 0.16124226549E+01
 0.16776054004E+01 0.17776551284E+01 0.19151289079E+01 0.20932504826E+01 0.23159049424E+01
 0.25877245963E+01 0.29142177442E+01 0.33018379171E+01 0.37578672826E+01 0.42900102111E+01
 0.49056615351E+01 0.56109119196E+01 0.64094501579E+01 0.73015831661E+01 0.82835872881E+01
 0.93475160949E+01 0.10481439424E+02 0.11669930057E+02 0.12894519765E+02 0.14133871975E+02
 0.15357671854E+02 0.16528727062E+02 0.17609966012E+02 0.18567797762E+02 0.19372513593E+02
 0.19999178962E+02 0.20428171020E+02 0.20646120654E+02 0.20646120654E+02 0.20428171020E+02
 0.19999178962E+02 0.19372513593E+02 0.18567797762E+02 0.17609966012E+02 0.16528727062E+02
 0.14411858198E+02 0.13169044693E+02 0.11932140550E+02 0.10725783287E+02 0.95708769848E+01
 0.84844314037E+01 0.74792995162E+01 0.65639505242E+01 0.57424571624E+01 0.50148245136E+01
 0.43776780630E+01 0.38252144074E+01 0.33502440316E+01 0.29451427460E+01 0.26025718696E+01
 0.23159049424E+01 0.20793821917E+01 0.18880773050E+01 0.17377878273E+01 0.16249477645E+01
 0.15466190968E+01 0.15005666165E+01 0.14853774190E+01 0.15005666165E+01 0.15466190968E+01
 0.16249477645E+01 0.17377878273E+01 0.18880773050E+01 0.20793821917E+01 0.23159049424E+01
 0.26025718696E+01 0.29451427460E+01 0.33502440316E+01 0.38252144074E+01 0.43776780630E+01
 0.50148245136E+01 0.57424571624E+01 0.65639505242E+01 0.74792995162E+01 0.84844314037E+01
 0.95708769848E+01 0.10725783287E+02 0.11932140550E+02 0.13169044693E+02 0.14411858198E+02
 0.15632263382E+02 0.16794530408E+02 0.17860032442E+02 0.18790981858E+02 0.19553943902E+02
 0.20120605368E+02 0.20469591499E+02 0.20587455691E+02 0.20469591499E+02 0.20120605368E+02
 0.19553943902E+02 0.18790981858E+02 0.17860032442E+02 0.16794530408E+02 0.15632263382E+02
 0.13429593346E+02 0.12195184993E+02 0.10982773139E+02 0.98158073362E+01 0.87132084956E+01
 0.76891734622E+01 0.67531161153E+01 0.59098338280E+01 0.51599629755E+01 0.45007172249E+01
 0.39268235525E+01 0.34315173339E+01 0.30074477956E+01 0.26473780058E+01 0.23446246188E+01
 0.20932504826E+01 0.18880773050E+01 0.17246117472E+01 0.15989728070E+01 0.15078779687E+01
 0.14487038121E+01 0.14195982838E+01 0.14195982838E+01 0.14487038121E+01 0.15078779687E+01
 0.15989728070E+01 0.17246117472E+01 0.18880773050E+01 0.20932504826E+01 0.23446246188E+01
 0.26473780058E+01 0.30074477956E+01 0.34315173339E+01 0.39268235525E+01 0.45007172249E+01
 0.51599629755E+01 0.59098338280E+01 0.67531161153E+01 0.76891734622E+01 0.87132084956E+01
 0.98158073362E+01 0.10982773139E+02 0.12195184993E+02 0.13429593346E+02 0.14658302030E+02
 0.15849778261E+02 0.16969333691E+02 0.17980274064E+02 0.18842379000E+02 0.19523132709E+02
 0.19993676707E+02 0.20234117810E+02 0.20234117810E+02 0.19993676707E+02 0.19523132709E+02
 0.18842379000E+02 0.17980274064E+02 0.16969333691E+02 0.15849778261E+02 0.14658302030E+02
 0.12454418483E+02 0.11247825692E+02 0.10078189188E+02 0.89664880236E+01 0.79285545402E+01
 0.69750856782E+01 0.61119254317E+01 0.53406216409E+01 0.46592168871E+01 0.40631842248E+01
 0.35463869140E+01 0.31019404712E+01 0.27228852251E+01 0.24026274977E+01 0.21351617333E+01
 0.19151289079E+01 0.17377878273E+01 0.15989728070E+01 0.14950889761E+01 0.14231650259E+01
 0.13809529124E+01 0.13670426738E+01 0.13809529124E+01 0.14231650259E+01 0.14950889761E+01
 0.15989728070E+01 0.17377878273E+01 0.19151289079E+01 0.21351617333E+01 0.24026274977E+01
 0.27228852251E+01 0.31019404712E+01 0.35463869140E+01 0.40631842248E+01 0.46592168871E+01
 0.53406216409E+01 0.61119254317E+01 0.69750856782E+01 0.79285545402E+01 0.89664880236E+01
 0.10078189188E+02 0.11247825692E+02 0.12454418483E+02 0.13672083145E+02 0.14870527205E+02
 0.16015853110E+02 0.17071755897E+02 0.18001199717E+02 0.18768585092E+02 0.19342285288E+02
 0.19697274956E+02 0.19817457404E+02 0.19697274956E+02 0.19342285288E+02 0.18768585092E+02
 0.18001199717E+02 0.17071755897E+02 0.16015853110E+02 0.14870527205E+02 0.13672083145E+02
 0.11519213587E+02 0.10356069722E+02 0.92423709881E+01 0.81957759276E+01 0.72285385027E+01
 0.63478308914E+01 0.55563598058E+01 0.48532006257E+01 0.42347445581E+01 0.36956411893E+01
 0.32296298457E+01 0.28301862999E+01 0.24909569895E+01 0.22059981737E+01 0.19698706727E+01
 0.17776551284E+01 0.16249477645E+01 0.15078779687E+01 0.14231650259E+01 0.13682093796E+01
 0.13411982535E+01 0.13411982535E+01 0.13682093796E+01 0.14231650259E+01 0.15078779687E+01
 0.16249477645E+01 0.17776551284E+01 0.19698706727E+01 0.22059981737E+01 0.24909569895E+01
 0.28301862999E+01 0.32296298457E+01 0.36956411893E+01 0.42347445581E+01 0.48532006257E+01
 0.55563598058E+01 0.63478308914E+01 0.72285385027E+01 0.81957759276E+01 0.92423709881E+01
 0.10356069722E+02 0.11519213587E+02 0.12708754978E+02 0.13896636880E+02 0.15050560108E+02
 0.16135166639E+02 0.17113660150E+02 0.17949845049E+02 0.18610486204E+02 0.19067787972E+02
 0.19301697768E+02 0.19301697768E+02 0.19067787972E+02 0.18610486204E+02 0.17949845049E+02
 0.17113660150E+02 0.16135166639E+02 0.15050560108E+02 0.13896636880E+02 0.12708754978E+02
 0.10649452201E+02 0.95405598065E+01 0.84904069246E+01 0.75130326108E+01 0.66172014073E+01
 0.58070199616E+01 0.50827874797E+01 0.44419558327E+01 0.38800734912E+01 0.33916083188E+01
 0.29705834184E+01 0.26110073527E+01 0.23071226552E+01 0.20535243972E+01 0.18452090899E+01
 0.16776054004E+01 0.15466190968E+01 0.14487038121E+01 0.13809529124E+01 0.13411982535E+01
 0.13280981810E+01 0.13411982535E+01 0.13809529124E+01 0.14487038121E+01 0.15466190968E+01
 0.16776054004E+01 0.18452090899E+01 0.20535243972E+01 0.23071226552E+01 0.26110073527E+01
 0.29705834184E+01 0.33916083188E+01 0.38800734912E+01 0.44419558327E+01 0.50827874797E+01
 0.58070199616E+01 0.66172014073E+01 0.75130326108E+01 0.84904069246E+01 0.95405598065E+01
 0.10649452201E+02 0.11797491270E+02 0.12959661549E+02 0.14106109131E+02 0.15203195376E+02
 0.16215010624E+02 0.17105302578E+02 0.17839720230E+02 0.18388204627E+02 0.18727288889E+02
 0.18842027988E+02 0.18727288889E+02 0.18388204627E+02 0.17839720230E+02 0.17105302578E+02
 0.16215010624E+02 0.15203195376E+02 0.14106109131E+02 0.12959661549E+02 0.11797491270E+02
 0.98618646898E+01 0.88130638510E+01 0.78290503954E+01 0.69204357505E+01 0.60929845153E+01
 0.53484326682E+01 0.46854426013E+01 0.41005565627E+01 0.35890343599E+01 0.31455044436E+01
 0.27644084856E+01 0.24402648280E+01 0.21678047386E+01 0.19420426146E+01 0.17583300683E+01
 0.16124226549E+01 0.15005666165E+01 0.14195982838E+01 0.13670426738E+01 0.13411982535E+01
 0.13411982535E+01 0.13670426738E+01 0.14195982838E+01 0.15005666165E+01 0.16124226549E+01
 0.17583300683E+01 0.19420426146E+01 0.21678047386E+01 0.24402648280E+01 0.27644084856E+01
 0.31455044436E+01 0.35890343599E+01 0.41005565627E+01 0.46854426013E+01 0.53484326682E+01
 0.60929845153E+01 0.69204357505E+01 0.78290503954E+01 0.88130638510E+01 0.98618646898E+01
 0.10959451610E+02 0.12084281400E+02 0.13209586504E+02 0.14304197763E+02 0.15333864792E+02
 0.16263022801E+02 0.17056906879E+02 0.17683861000E+02 0.18117635696E+02 0.18339430161E+02
 0.18339430161E+02 0.18117635696E+02 0.17683861000E+02 0.17056906879E+02 0.16263022801E+02
 0.15333864792E+02 0.14304197763E+02 0.13209586504E+02 0.12084281400E+02 0.10959451610E+02
 0.91647367892E+01 0.81776318745E+01 0.72585754497E+01 0.64152621820E+01 0.56511207962E+01
 0.49662207222E+01 0.43582210619E+01 0.38232347250E+01 0.33565217023E+01 0.29529778867E+01
 0.26074355732E+01 0.23148260385E+01 0.20702666171E+01 0.18691258523E+01 0.17070988534E+01
 0.15803017389E+01 0.14853774190E+01 0.14195982838E+01 0.13809529124E+01 0.13682093796E+01
 0.13809529124E+01 0.14195982838E+01 0.14853774190E+01 0.15803017389E+01 0.17070988534E+01
 0.18691258523E+01 0.20702666171E+01 0.23148260385E+01 0.26074355732E+01 0.29529778867E+01
 0.33565217023E+01 0.38232347250E+01 0.43582210619E+01 0.49662207222E+01 0.56511207962E+01
 0.64152621820E+01 0.72585754497E+01 0.81776318745E+01 0.91647367892E+01 0.10207211452E+02
 0.11287002408E+02 0.12380726972E+02 0.13460218460E+02 0.14493584406E+02 0.15446741118E+02
 0.16285339247E+02 0.16976946261E+02 0.17493304269E+02 0.17812443582E+02 0.17920417327E+02
 0.17812443582E+02 0.17493304269E+02 0.16976946261E+02 0.16285339247E+02 0.15446741118E+02
 0.14493584406E+02 0.13460218460E+02 0.12380726972E+02 0.11287002408E+02 0.10207211452E+02
 0.85596057741E+01 0.76328249885E+01 0.67752760714E+01 0.59923668004E+01 0.52858342152E+01
 0.46546465509E+01 0.40958802807E+01 0.36054682617E+01 0.31787621576E+01 0.28109033395E+01
 0.24970376589E+01 0.22324311194E+01 0.20125432940E+01 0.18330988531E+01 0.16901748133E+01
 0.15803017389E+01 0.15005666165E+01 0.14487038121E+01 0.14231650259E+01 0.14231650259E+01
 0.14487038121E+01 0.15005666165E+01 0.15803017389E+01 0.16901748133E+01 0.18330988531E+01
 0.20125432940E+01 0.22324311194E+01 0.24970376589E+01 0.28109033395E+01 0.31787621576E+01
 0.36054682617E+01 0.40958802807E+01 0.46546465509E+01 0.52858342152E+01 0.59923668004E+01
 0.67752760714E+01 0.76328249885E+01 0.85596057741E+01 0.95457476132E+01 0.10576374537E+02
 0.11631434943E+02 0.12685986131E+02 0.13710969695E+02 0.14674464903E+02 0.15543360431E+02
 0.16285339247E+02 0.16871025733E+02 0.17276102407E+02 0.17483176306E+02 0.17483176306E+02
 0.17276102407E+02 0.16871025733E+02 0.16285339247E+02 0.15543360431E+02 0.14674464903E+02
 0.13710969695E+02 0.12685986131E+02 0.11631434943E+02 0.10576374537E+02 0.95457476132E+01
 0.80437475519E+01 0.71743167291E+01 0.63739261408E+01 0.56462835523E+01 0.49919407131E+01
 0.44091381581E+01 0.38945927542E+01 0.34441461539E+01 0.30532371942E+01 0.27172054600E+01
 0.24314651357E+01 0.21916014299E+01 0.19934369363E+01 0.18330988531E+01 0.17070988534E+01
 0.16124226549E+01 0.15466190968E+01 0.15078779687E+01 0.14950889761E+01 0.15078779687E+01
 0.15466190968E+01 0.16124226549E+01 0.17070988534E+01 0.18330988531E+01 0.19934369363E+01
 0.21916014299E+01 0.24314651357E+01 0.27172054600E+01 0.30532371942E+01 0.34441461539E+01
 0.38945927542E+01 0.44091381581E+01 0.49919407131E+01 0.56462835523E+01 0.63739261408E+01
 0.71743167291E+01 0.80437475519E+01 0.89745677459E+01 0.99545813637E+01 0.10966747046E+02
 0.11989266316E+02 0.12996108003E+02 0.13957975509E+02 0.14843685470E+02 0.15621888644E+02
 0.16263022801E+02 0.16741342659E+02 0.17036831784E+02 0.17136780905E+02 0.17036831784E+02
 0.16741342659E+02 0.16263022801E+02 0.15621888644E+02 0.14843685470E+02 0.13957975509E+02
 0.12996108003E+02 0.11989266316E+02 0.10966747046E+02 0.99545813637E+01 0.89745677459E+01
 0.76127390904E+01 0.67972083263E+01 0.60496742377E+01 0.53725993990E+01 0.47656870745E+01
 0.42266581984E+01 0.37519670924E+01 0.33373869437E+01 0.29784349064E+01 0.26706441000E+01
 0.24097164286E+01 0.21916014299E+01 0.20125432940E+01 0.18691258523E+01 0.17583300683E+01
 0.16776054004E+01 0.16249477645E+01 0.15989728070E+01 0.15989728070E+01 0.16249477645E+01
 0.16776054004E+01 0.17583300683E+01 0.18691258523E+01 0.20125432940E+01 0.21916014299E+01
 0.24097164286E+01 0.26706441000E+01 0.29784349064E+01 0.33373869437E+01 0.37519670924E+01
 0.42266581984E+01 0.47656870745E+01 0.53725993990E+01 0.60496742377E+01 0.67972083263E+01
 0.76127390904E+01 0.84903047075E+01 0.94198509338E+01 0.10386885348E+02 0.11372454440E+02
 0.12353486643E+02 0.13303514012E+02 0.14193760469E+02 0.14994561550E+02 0.15677051297E+02
 0.16215010624E+02 0.16586722447E+02 0.16776637006E+02 0.16776637006E+02 0.16586722447E+02
 0.16215010624E+02 0.15677051297E+02 0.14994561550E+02 0.14193760469E+02 0.13303514012E+02
 0.12353486643E+02 0.11372454440E+02 0.10386885348E+02 0.94198509338E+01 0.84903047075E+01
 0.72624908866E+01 0.64976037055E+01 0.57991010107E+01 0.51685098860E+01 0.46048876839E+01
 0.41055491033E+01 0.36667424167E+01 0.32842071634E+01 0.29535792704E+01 0.26706441000E+01
 0.24314651357E+01 0.22324311194E+01 0.20702666171E+01 0.19420426146E+01 0.18452090899E+01
 0.17776551284E+01 0.17377878273E+01 0.17246117472E+01 0.17377878273E+01 0.17776551284E+01
 0.18452090899E+01 0.19420426146E+01 0.20702666171E+01 0.22324311194E+01 0.24314651357E+01
 0.26706441000E+01 0.29535792704E+01 0.32842071634E+01 0.36667424167E+01 0.41055491033E+01
 0.46048876839E+01 0.51685098860E+01 0.57991010107E+01 0.64976037055E+01 0.72624908866E+01
 0.80890787766E+01 0.89689766889E+01 0.98897566011E+01 0.10834898183E+02 0.11784034407E+02
 0.12713499843E+02 0.13597172734E+02 0.14407597785E+02 0.15117366662E+02 0.15700705106E+02
 0.16135166639E+02 0.16403275198E+02 0.16493916455E+02 0.16403275198E+02 0.16135166639E+02
 0.15700705106E+02 0.15117366662E+02 0.14407597785E+02 0.13597172734E+02 0.12713499843E+02
 0.11784034407E+02 0.10834898183E+02 0.98897566011E+01 0.89689766889E+01 0.80890787766E+01
 0.69903937823E+01 0.62732711487E+01 0.56204382898E+01 0.50326922254E+01 0.45085795923E+01
 0.40451018563E+01 0.36383805344E+01 0.32842071634E+01 0.29784349064E+01 0.27172054600E+01