   2   2   1   0
  0.2045223E+02  0.3867484E-09  0.3867485E-09  0.3867483E-09  0.5000000E-15
  1.000000000000000E-004
  CAR 
 unknown system                          
     46.37379212     -8.71165306  301      5.63351496      1.00000000
     -8.712  0.0000E+00  0.0000E+00  0.0000E+00  0.0000E+00
     -8.528  0.0000E+00  0.0000E+00  0.0000E+00  0.0000E+00
     -8.344  0.0000E+00  0.0000E+00  0.0000E+00  0.0000E+00
     -8.161  0.0000E+00  0.0000E+00  0.0000E+00  0.0000E+00
     -7.977  0.0000E+00  0.0000E+00  0.0000E+00  0.0000E+00
     -7.794  0.0000E+00  0.0000E+00  0.0000E+00  0.0000E+00
     -7.610  0.0000E+00  0.0000E+00  0.0000E+00  0.0000E+00
     -7.426  0.0000E+00  0.0000E+00  0.0000E+00  0.0000E+00
     -7.243  0.0000E+00  0.0000E+00  0.0000E+00  0.0000E+00
     -7.059  0.0000E+00  0.0000E+00  0.0000E+00  0.0000E+00
     -6.875  0.0000E+00  0.0000E+00  0.0000E+00  0.0000E+00
     -6.692  0.0000E+00  0.0000E+00  0.0000E+00  0.0000E+00
     -6.508  0.0000E+00  0.0000E+00  0.0000E+00  0.0000E+00
     -6.325  0.0000E+00  0.0000E+00  0.0000E+00  0.0000E+00
     -6.141  0.7780E-02  0.7833E-02  0.1725E-03  0.1743E-03
     -5.957  0.7599E-01  0.7594E-01  0.9123E-02  0.9138E-02
     -5.774  0.1036E+00  0.1036E+00  0.2512E-01  0.2514E-01
     -5.590  0.1429E+00  0.1429E+00  0.4800E-01  0.4801E-01
     -5.407  0.1557E+00  0.1557E+00  0.7526E-01  0.7526E-01
     -5.223  0.1793E+00  0.1792E+00  0.1060E+00  0.1060E+00
     -5.039  0.2058E+00  0.2057E+00  0.1412E+00  0.1412E+00
     -4.856  0.2272E+00  0.2272E+00  0.1811E+00  0.1811E+00
     -4.672  0.2489E+00  0.2488E+00  0.2248E+00  0.2248E+00
     -4.488  0.2757E+00  0.2756E+00  0.2729E+00  0.2728E+00
     -4.305  0.3123E+00  0.3121E+00  0.3268E+00  0.3267E+00
     -4.121  0.3555E+00  0.3553E+00  0.3880E+00  0.3879E+00
     -3.938  0.4930E+00  0.4925E+00  0.4649E+00  0.4646E+00
     -3.754  0.4313E+00  0.4312E+00  0.5508E+00  0.5506E+00
     -3.570  0.4119E+00  0.4119E+00  0.6287E+00  0.6285E+00
     -3.387  0.3845E+00  0.3850E+00  0.7020E+00  0.7017E+00
     -3.203  0.3597E+00  0.3596E+00  0.7691E+00  0.7688E+00
     -3.019  0.3262E+00  0.3263E+00  0.8326E+00  0.8324E+00
     -2.836  0.3373E+00  0.3372E+00  0.8939E+00  0.8937E+00
     -2.652  0.2063E+00  0.2067E+00  0.9440E+00  0.9439E+00
     -2.469  0.1285E+00  0.1287E+00  0.9741E+00  0.9740E+00
     -2.285  0.6793E-01  0.6814E-01  0.9920E+00  0.9919E+00
     -2.101  0.1710E-01  0.1723E-01  0.9995E+00  0.9995E+00
     -1.918  0.3864E-01  0.3845E-01  0.1003E+01  0.1003E+01
     -1.734  0.9332E-01  0.9310E-01  0.1015E+01  0.1015E+01
     -1.551  0.1582E+00  0.1580E+00  0.1038E+01  0.1038E+01
     -1.367  0.2801E+00  0.2796E+00  0.1077E+01  0.1077E+01
     -1.183  0.4468E+00  0.4475E+00  0.1145E+01  0.1145E+01
     -1.000  0.7750E+00  0.7749E+00  0.1257E+01  0.1257E+01
     -0.816  0.5312E+00  0.5311E+00  0.1377E+01  0.1376E+01
     -0.632  0.3915E+00  0.3914E+00  0.1459E+01  0.1459E+01
     -0.449  0.3265E+00  0.3265E+00  0.1524E+01  0.1524E+01
     -0.265  0.2736E+00  0.2736E+00  0.1579E+01  0.1579E+01
     -0.082  0.2336E+00  0.2336E+00  0.1626E+01  0.1626E+01
      0.102  0.2074E+00  0.2074E+00  0.1666E+01  0.1666E+01
      0.286  0.1880E+00  0.1880E+00  0.1702E+01  0.1702E+01
      0.469  0.1705E+00  0.1705E+00  0.1735E+01  0.1735E+01
      0.653  0.1538E+00  0.1538E+00  0.1765E+01  0.1765E+01
      0.836  0.1373E+00  0.1374E+00  0.1791E+01  0.1791E+01
      1.020  0.1242E+00  0.1242E+00  0.1815E+01  0.1815E+01
      1.204  0.1102E+00  0.1103E+00  0.1837E+01  0.1837E+01
      1.387  0.9972E-01  0.9973E-01  0.1856E+01  0.1856E+01
      1.571  0.4660E+00  0.4705E+00  0.1896E+01  0.1896E+01
      1.755  0.5857E+00  0.5848E+00  0.2013E+01  0.2014E+01
      1.938  0.5744E+00  0.5740E+00  0.2118E+01  0.2119E+01
      2.122  0.5745E+00  0.5741E+00  0.2224E+01  0.2224E+01
      2.305  0.5790E+00  0.5776E+00  0.2338E+01  0.2339E+01
      2.489  0.5575E+00  0.5571E+00  0.2440E+01  0.2440E+01
      2.673  0.6258E+00  0.6253E+00  0.2547E+01  0.2547E+01
      2.856  0.7587E+00  0.7575E+00  0.2674E+01  0.2674E+01
      3.040  0.7889E+00  0.7895E+00  0.2830E+01  0.2830E+01
      3.224  0.7629E+00  0.7626E+00  0.2972E+01  0.2972E+01
      3.407  0.7156E+00  0.7154E+00  0.3109E+01  0.3109E+01
      3.591  0.7130E+00  0.7126E+00  0.3240E+01  0.3240E+01
      3.774  0.7190E+00  0.7189E+00  0.3371E+01  0.3371E+01
      3.958  0.6626E+00  0.6625E+00  0.3498E+01  0.3498E+01
      4.142  0.6634E+00  0.6632E+00  0.3619E+01  0.3618E+01
      4.325  0.5995E+00  0.6000E+00  0.3737E+01  0.3736E+01
      4.509  0.3869E+00  0.3876E+00  0.3828E+01  0.3827E+01
      4.692  0.2894E+00  0.2898E+00  0.3889E+01  0.3889E+01
      4.876  0.1905E+00  0.1907E+00  0.3934E+01  0.3934E+01
      5.060  0.1407E+00  0.1409E+00  0.3964E+01  0.3964E+01
      5.243  0.1031E+00  0.1032E+00  0.3987E+01  0.3987E+01
      5.427  0.2461E-01  0.2482E-01  0.3999E+01  0.3999E+01
      5.611  0.0000E+00  0.0000E+00  0.4000E+01  0.4000E+01
      5.794  0.0000E+00  0.0000E+00  0.4000E+01  0.4000E+01
      5.978  0.0000E+00  0.0000E+00  0.4000E+01  0.4000E+01
      6.161  0.0000E+00  0.0000E+00  0.4000E+01  0.4000E+01
      6.345  0.1571E-01  0.1758E-01  0.4000E+01  0.4001E+01
      6.529  0.1354E+00  0.1399E+00  0.4013E+01  0.4013E+01
      6.712  0.1200E+00  0.1212E+00  0.4031E+01  0.4031E+01
      6.896  0.1881E+00  0.1898E+00  0.4058E+01  0.4059E+01
      7.080  0.2434E+00  0.2446E+00  0.4098E+01  0.4099E+01
      7.263  0.3386E+00  0.3404E+00  0.4151E+01  0.4152E+01
      7.447  0.4724E+00  0.4744E+00  0.4225E+01  0.4227E+01
      7.630  0.6601E+00  0.6631E+00  0.4330E+01  0.4332E+01
      7.814  0.9919E+00  0.9922E+00  0.4485E+01  0.4488E+01
      7.998  0.1077E+01  0.1077E+01  0.4675E+01  0.4678E+01
      8.181  0.9782E+00  0.9747E+00  0.4873E+01  0.4875E+01
      8.365  0.6107E+00  0.6066E+00  0.5021E+01  0.5023E+01
      8.548  0.2706E+00  0.2689E+00  0.5099E+01  0.5100E+01
      8.732  0.3376E+00  0.3377E+00  0.5151E+01  0.5151E+01
      8.916  0.5596E+00  0.5614E+00  0.5230E+01  0.5231E+01
      9.099  0.1405E+01  0.1410E+01  0.5384E+01  0.5386E+01
      9.283  0.1020E+01  0.1022E+01  0.5669E+01  0.5670E+01
      9.467  0.7206E+00  0.7207E+00  0.5815E+01  0.5816E+01
      9.650  0.7055E+00  0.7056E+00  0.5947E+01  0.5948E+01
      9.834  0.6681E+00  0.6700E+00  0.6071E+01  0.6072E+01
     10.017  0.5822E+00  0.5779E+00  0.6209E+01  0.6210E+01
     10.201  0.4686E+00  0.4685E+00  0.6301E+01  0.6301E+01
     10.385  0.4407E+00  0.4404E+00  0.6384E+01  0.6385E+01
     10.568  0.4255E+00  0.4252E+00  0.6463E+01  0.6464E+01
     10.752  0.8023E+00  0.8045E+00  0.6571E+01  0.6572E+01
     10.935  0.7200E+00  0.7181E+00  0.6722E+01  0.6722E+01
     11.119  0.6105E+00  0.6105E+00  0.6842E+01  0.6843E+01
     11.303  0.5334E+00  0.5332E+00  0.6947E+01  0.6948E+01
     11.486  0.5020E+00  0.5025E+00  0.7038E+01  0.7038E+01
     11.670  0.4817E+00  0.4815E+00  0.7129E+01  0.7130E+01
     11.854  0.4063E+00  0.4067E+00  0.7210E+01  0.7210E+01
     12.037  0.4482E+00  0.4487E+00  0.7287E+01  0.7287E+01
     12.221  0.5544E+00  0.5553E+00  0.7380E+01  0.7381E+01
     12.404  0.6380E+00  0.6391E+00  0.7490E+01  0.7490E+01
     12.588  0.7440E+00  0.7463E+00  0.7615E+01  0.7616E+01
     12.772  0.7628E+00  0.7619E+00  0.7757E+01  0.7758E+01
     12.955  0.6482E+00  0.6183E+00  0.7889E+01  0.7890E+01
     13.139  0.6252E+00  0.6257E+00  0.8003E+01  0.8004E+01
     13.323  0.6387E+00  0.6361E+00  0.8119E+01  0.8120E+01
     13.506  0.6814E+00  0.6817E+00  0.8237E+01  0.8237E+01
     13.690  0.6833E+00  0.6834E+00  0.8363E+01  0.8363E+01
     13.873  0.5666E+00  0.5675E+00  0.8478E+01  0.8479E+01
     14.057  0.5488E+00  0.5503E+00  0.8579E+01  0.8580E+01
     14.241  0.5601E+00  0.5699E+00  0.8681E+01  0.8682E+01
     14.424  0.5743E+00  0.5764E+00  0.8786E+01  0.8788E+01
     14.608  0.5878E+00  0.5895E+00  0.8893E+01  0.8895E+01
     14.791  0.6219E+00  0.6260E+00  0.9003E+01  0.9005E+01
     14.975  0.7305E+00  0.7347E+00  0.9126E+01  0.9130E+01
     15.159  0.8443E+00  0.8482E+00  0.9271E+01  0.9275E+01
     15.342  0.9173E+00  0.9114E+00  0.9437E+01  0.9442E+01
     15.526  0.9159E+00  0.9034E+00  0.9605E+01  0.9608E+01
     15.710  0.8002E+00  0.7984E+00  0.9763E+01  0.9766E+01
     15.893  0.7477E+00  0.7468E+00  0.9905E+01  0.9907E+01
     16.077  0.6953E+00  0.6956E+00  0.1004E+02  0.1004E+02
     16.260  0.5973E+00  0.5957E+00  0.1016E+02  0.1016E+02
     16.444  0.3609E+00  0.3616E+00  0.1025E+02  0.1025E+02
     16.628  0.2303E+00  0.2322E+00  0.1030E+02  0.1030E+02
     16.811  0.3422E+00  0.3462E+00  0.1035E+02  0.1035E+02
     16.995  0.4293E+00  0.4311E+00  0.1042E+02  0.1043E+02
     17.179  0.4492E+00  0.4484E+00  0.1050E+02  0.1051E+02
     17.362  0.5234E+00  0.5253E+00  0.1059E+02  0.1059E+02
     17.546  0.6553E+00  0.6554E+00  0.1070E+02  0.1070E+02
     17.729  0.8340E+00  0.8334E+00  0.1083E+02  0.1084E+02
     17.913  0.9509E+00  0.9509E+00  0.1100E+02  0.1100E+02
     18.097  0.9295E+00  0.9282E+00  0.1117E+02  0.1117E+02
     18.280  0.1056E+01  0.1052E+01  0.1136E+02  0.1136E+02
     18.464  0.9709E+00  0.9695E+00  0.1154E+02  0.1154E+02
     18.647  0.9776E+00  0.9436E+00  0.1172E+02  0.1172E+02
     18.831  0.7044E+00  0.7083E+00  0.1186E+02  0.1187E+02
     19.015  0.7954E+00  0.8034E+00  0.1200E+02  0.1201E+02
     19.198  0.9231E+00  0.9334E+00  0.1216E+02  0.1216E+02
     19.382  0.9693E+00  0.9680E+00  0.1233E+02  0.1234E+02
     19.566  0.8227E+00  0.8177E+00  0.1250E+02  0.1251E+02
     19.749  0.6652E+00  0.7198E+00  0.1263E+02  0.1264E+02
     19.933  0.6187E+00  0.6178E+00  0.1275E+02  0.1276E+02
     20.116  0.6644E+00  0.6651E+00  0.1287E+02  0.1287E+02
     20.300  0.9461E+00  0.9472E+00  0.1301E+02  0.1302E+02
     20.484  0.1100E+01  0.1101E+01  0.1320E+02  0.1321E+02
     20.667  0.9517E+00  0.9438E+00  0.1340E+02  0.1340E+02
     20.851  0.6609E+00  0.6564E+00  0.1355E+02  0.1356E+02
     21.034  0.4906E+00  0.4902E+00  0.1365E+02  0.1365E+02
     21.218  0.5219E+00  0.5225E+00  0.1374E+02  0.1375E+02
     21.402  0.1051E+01  0.9600E+00  0.1386E+02  0.1386E+02
     21.585  0.5902E+00  0.5887E+00  0.1399E+02  0.1399E+02
     21.769  0.4602E+00  0.4555E+00  0.1409E+02  0.1409E+02
     21.953  0.5115E+00  0.5119E+00  0.1417E+02  0.1417E+02
     22.136  0.6843E+00  0.6896E+00  0.1428E+02  0.1428E+02
     22.320  0.7321E+00  0.7360E+00  0.1441E+02  0.1441E+02
     22.503  0.8083E+00  0.8132E+00  0.1455E+02  0.1455E+02
     22.687  0.7588E+00  0.7590E+00  0.1469E+02  0.1470E+02
     22.871  0.8144E+00  0.8160E+00  0.1484E+02  0.1484E+02
     23.054  0.7721E+00  0.7667E+00  0.1499E+02  0.1499E+02
     23.238  0.8231E+00  0.8251E+00  0.1513E+02  0.1514E+02
     23.422  0.1130E+01  0.1155E+01  0.1531E+02  0.1531E+02
     23.605  0.8102E+00  0.7910E+00  0.1551E+02  0.1551E+02
     23.789  0.1596E+01  0.1556E+01  0.1571E+02  0.1571E+02
     23.972  0.5395E+00  0.5344E+00  0.1587E+02  0.1587E+02
     24.156  0.9505E+00  0.9646E+00  0.1599E+02  0.1599E+02
     24.340  0.1260E+01  0.1264E+01  0.1620E+02  0.1620E+02
     24.523  0.1281E+01  0.1283E+01  0.1643E+02  0.1644E+02
     24.707  0.1194E+01  0.1195E+01  0.1666E+02  0.1667E+02
     24.890  0.9585E+00  0.9515E+00  0.1687E+02  0.1687E+02
     25.074  0.7666E+00  0.7639E+00  0.1702E+02  0.1702E+02
     25.258  0.6025E+00  0.5992E+00  0.1715E+02  0.1715E+02
     25.441  0.4794E+00  0.4790E+00  0.1725E+02  0.1725E+02
     25.625  0.4678E+00  0.4684E+00  0.1733E+02  0.1734E+02
     25.809  0.4719E+00  0.4723E+00  0.1742E+02  0.1742E+02
     25.992  0.5299E+00  0.5323E+00  0.1751E+02  0.1751E+02
     26.176  0.6387E+00  0.6418E+00  0.1762E+02  0.1762E+02
     26.359  0.8020E+00  0.8070E+00  0.1775E+02  0.1775E+02
     26.543  0.9793E+00  0.9809E+00  0.1793E+02  0.1793E+02
     26.727  0.1101E+01  0.1102E+01  0.1811E+02  0.1812E+02
     26.910  0.1079E+01  0.1073E+01  0.1832E+02  0.1832E+02
     27.094  0.1511E+01  0.1522E+01  0.1853E+02  0.1853E+02
     27.278  0.1290E+01  0.1289E+01  0.1881E+02  0.1881E+02
     27.461  0.1061E+01  0.1059E+01  0.1902E+02  0.1902E+02
     27.645  0.9177E+00  0.9154E+00  0.1920E+02  0.1920E+02
     27.828  0.6711E+00  0.6661E+00  0.1935E+02  0.1935E+02
     28.012  0.5299E+00  0.5281E+00  0.1945E+02  0.1946E+02
     28.196  0.8005E+00  0.7995E+00  0.1958E+02  0.1959E+02
     28.379  0.9467E+00  0.9457E+00  0.1974E+02  0.1974E+02
     28.563  0.9383E+00  0.9390E+00  0.1991E+02  0.1992E+02
     28.746  0.8490E+00  0.8455E+00  0.2008E+02  0.2008E+02
     28.930  0.6891E+00  0.6829E+00  0.2022E+02  0.2022E+02
     29.114  0.5727E+00  0.5696E+00  0.2033E+02  0.2034E+02
     29.297  0.5099E+00  0.5103E+00  0.2043E+02  0.2044E+02
     29.481  0.6061E+00  0.6087E+00  0.2054E+02  0.2054E+02
     29.665  0.6570E+00  0.6576E+00  0.2065E+02  0.2065E+02
     29.848  0.7611E+00  0.7642E+00  0.2078E+02  0.2078E+02
     30.032  0.1100E+01  0.1109E+01  0.2094E+02  0.2094E+02
     30.215  0.7069E+00  0.7030E+00  0.2110E+02  0.2110E+02
     30.399  0.6712E+00  0.6737E+00  0.2122E+02  0.2122E+02
     30.583  0.8797E+00  0.8948E+00  0.2136E+02  0.2136E+02
     30.766  0.1055E+01  0.1057E+01  0.2154E+02  0.2155E+02
     30.950  0.1067E+01  0.1064E+01  0.2174E+02  0.2174E+02
     31.133  0.1003E+01  0.9970E+00  0.2193E+02  0.2193E+02
     31.317  0.8915E+00  0.8893E+00  0.2210E+02  0.2211E+02
     31.501  0.8850E+00  0.8810E+00  0.2226E+02  0.2227E+02
     31.684  0.9288E+00  0.9243E+00  0.2245E+02  0.2245E+02
     31.868  0.8194E+00  0.8197E+00  0.2261E+02  0.2261E+02
     32.052  0.8089E+00  0.8092E+00  0.2276E+02  0.2276E+02
     32.235  0.7846E+00  0.7851E+00  0.2290E+02  0.2291E+02
     32.419  0.7701E+00  0.7709E+00  0.2305E+02  0.2305E+02
     32.602  0.8468E+00  0.8538E+00  0.2319E+02  0.2320E+02
     32.786  0.1181E+01  0.1188E+01  0.2338E+02  0.2338E+02
     32.970  0.5139E+00  0.5064E+00  0.2352E+02  0.2352E+02
     33.153  0.5668E+00  0.5801E+00  0.2361E+02  0.2362E+02
     33.337  0.9443E+00  0.9621E+00  0.2375E+02  0.2376E+02
     33.521  0.9165E+00  0.9024E+00  0.2394E+02  0.2395E+02
     33.704  0.7419E+00  0.7359E+00  0.2409E+02  0.2410E+02
     33.888  0.6659E+00  0.6615E+00  0.2422E+02  0.2422E+02
     34.071  0.7249E+00  0.7285E+00  0.2434E+02  0.2435E+02
     34.255  0.9691E+00  0.9690E+00  0.2450E+02  0.2450E+02
     34.439  0.1239E+01  0.1254E+01  0.2470E+02  0.2470E+02
     34.622  0.1465E+01  0.1467E+01  0.2495E+02  0.2496E+02
     34.806  0.1370E+01  0.1372E+01  0.2521E+02  0.2522E+02
     34.989  0.1024E+01  0.1021E+01  0.2544E+02  0.2545E+02
     35.173  0.9395E+00  0.9382E+00  0.2562E+02  0.2563E+02
     35.357  0.8981E+00  0.8908E+00  0.2579E+02  0.2580E+02
     35.540  0.8112E+00  0.8106E+00  0.2595E+02  0.2595E+02
     35.724  0.9142E+00  0.9164E+00  0.2611E+02  0.2611E+02
     35.908  0.9595E+00  0.9603E+00  0.2628E+02  0.2628E+02
     36.091  0.9850E+00  0.9858E+00  0.2646E+02  0.2646E+02
     36.275  0.1061E+01  0.1062E+01  0.2664E+02  0.2665E+02
     36.458  0.1372E+01  0.1366E+01  0.2686E+02  0.2687E+02
     36.642  0.9717E+00  0.9696E+00  0.2709E+02  0.2709E+02
     36.826  0.8072E+00  0.8051E+00  0.2724E+02  0.2724E+02
     37.009  0.8585E+00  0.8613E+00  0.2740E+02  0.2740E+02
     37.193  0.7937E+00  0.7941E+00  0.2755E+02  0.2755E+02
     37.377  0.8005E+00  0.8033E+00  0.2769E+02  0.2769E+02
     37.560  0.8125E+00  0.8123E+00  0.2784E+02  0.2784E+02
     37.744  0.1002E+01  0.1090E+01  0.2799E+02  0.2799E+02
     37.927  0.1235E+01  0.1224E+01  0.2822E+02  0.2822E+02
     38.111  0.1167E+01  0.1161E+01  0.2844E+02  0.2844E+02
     38.295  0.1137E+01  0.1134E+01  0.2865E+02  0.2865E+02
     38.478  0.1203E+01  0.1207E+01  0.2886E+02  0.2886E+02
     38.662  0.1241E+01  0.1245E+01  0.2909E+02  0.2909E+02
     38.845  0.1129E+01  0.1128E+01  0.2931E+02  0.2931E+02
     39.029  0.9721E+00  0.9422E+00  0.2950E+02  0.2950E+02
     39.213  0.7852E+00  0.7827E+00  0.2966E+02  0.2966E+02
     39.396  0.7979E+00  0.7975E+00  0.2980E+02  0.2980E+02
     39.580  0.6811E+00  0.6781E+00  0.2995E+02  0.2995E+02
     39.764  0.6835E+00  0.6874E+00  0.3007E+02  0.3007E+02
     39.947  0.8328E+00  0.8336E+00  0.3021E+02  0.3021E+02
     40.131  0.9930E+00  0.9832E+00  0.3037E+02  0.3037E+02
     40.314  0.8735E+00  0.8727E+00  0.3054E+02  0.3054E+02
     40.498  0.7984E+00  0.7986E+00  0.3069E+02  0.3069E+02
     40.682  0.7339E+00  0.7329E+00  0.3083E+02  0.3083E+02
     40.865  0.7601E+00  0.7611E+00  0.3097E+02  0.3097E+02
     41.049  0.7575E+00  0.7600E+00  0.3111E+02  0.3111E+02
     41.232  0.7953E+00  0.7966E+00  0.3125E+02  0.3125E+02
     41.416  0.7611E+00  0.7608E+00  0.3139E+02  0.3140E+02
     41.600  0.7371E+00  0.7424E+00  0.3153E+02  0.3153E+02
     41.783  0.7544E+00  0.7507E+00  0.3168E+02  0.3168E+02
     41.967  0.6050E+00  0.6034E+00  0.3180E+02  0.3180E+02
     42.151  0.3652E+00  0.3631E+00  0.3189E+02  0.3189E+02
     42.334  0.1822E+00  0.1798E+00  0.3194E+02  0.3194E+02
     42.518  0.8379E-01  0.8180E-01  0.3196E+02  0.3196E+02
     42.701  0.4030E-01  0.4019E-01  0.3197E+02  0.3197E+02
     42.885  0.3166E-01  0.3155E-01  0.3198E+02  0.3198E+02
     43.069  0.2483E-01  0.2476E-01  0.3198E+02  0.3198E+02
     43.252  0.1984E-01  0.1980E-01  0.3199E+02  0.3199E+02
     43.436  0.1836E-01  0.1834E-01  0.3199E+02  0.3199E+02
     43.620  0.1861E-01  0.1862E-01  0.3199E+02  0.3199E+02
     43.803  0.2101E-01  0.2109E-01  0.3200E+02  0.3200E+02
     43.987  0.0000E+00  0.0000E+00  0.3200E+02  0.3200E+02
     44.170  0.0000E+00  0.0000E+00  0.3200E+02  0.3200E+02
     44.354  0.0000E+00  0.0000E+00  0.3200E+02  0.3200E+02
     44.538  0.0000E+00  0.0000E+00  0.3200E+02  0.3200E+02
     44.721  0.0000E+00  0.0000E+00  0.3200E+02  0.3200E+02
     44.905  0.0000E+00  0.0000E+00  0.3200E+02  0.3200E+02
     45.088  0.0000E+00  0.0000E+00  0.3200E+02  0.3200E+02
     45.272  0.0000E+00  0.0000E+00  0.3200E+02  0.3200E+02
     45.456  0.0000E+00  0.0000E+00  0.3200E+02  0.3200E+02
     45.639  0.0000E+00  0.0000E+00  0.3200E+02  0.3200E+02
     45.823  0.0000E+00  0.0000E+00  0.3200E+02  0.3200E+02
     46.007  0.0000E+00  0.0000E+00  0.3200E+02  0.3200E+02
     46.190  0.0000E+00  0.0000E+00  0.3200E+02  0.3200E+02
     46.374  0.0000E+00  0.0000E+00  0.3200E+02  0.3200E+02
     46.37379212     -8.71165306  301      5.63351496      1.00000000
     -8.712  0.0000E+00  0.0000E+00  0.0000E+00  0.0000E+00  0.0000E+00  0.0000E+00  0.0000E+00  0.0000E+00  0.0000E+00  0.0000E+00  0.0000E+00  0.0000E+00  0.0000E+00  0.0000E+00  0.0000E+00  0.0000E+00  0.0000E+00  0.0000E+00
     -8.528  0.0000E+00  0.0000E+00  0.0000E+00  0.0000E+00  0.0000E+00  0.0000E+00  0.0000E+00  0.0000E+00  0.0000E+00  0.0000E+00  0.0000E+00  0.0000E+00  0.0000E+00  0.0000E+00  0.0000E+00  0.0000E+00  0.0000E+00  0.0000E+00
     -8.344  0.0000E+00  0.0000E+00  0.0000E+00  0.0000E+00  0.0000E+00  0.0000E+00  0.0000E+00  0.0000E+00  0.0000E+00  0.0000E+00  0.0000E+00  0.0000E+00  0.0000E+00  0.0000E+00  0.0000E+00  0.0000E+00  0.0000E+00  0.0000E+00
     -8.161  0.0000E+00  0.0000E+00  0.0000E+00  0.0000E+00  0.0000E+00  0.0000E+00  0.0000E+00  0.0000E+00  0.0000E+00  0.0000E+00  0.0000E+00  0.0000E+00  0.0000E+00  0.0000E+00  0.0000E+00  0.0000E+00  0.0000E+00  0.0000E+00
     -7.977  0.0000E+00  0.0000E+00  0.0000E+00  0.0000E+00  0.0000E+00  0.0000E+00  0.0000E+00  0.0000E+00  0.0000E+00  0.0000E+00  0.0000E+00  0.0000E+00  0.0000E+00  0.0000E+00  0.0000E+00  0.0000E+00  0.0000E+00  0.0000E+00
     -7.794  0.0000E+00  0.0000E+00  0.0000E+00  0.0000E+00  0.0000E+00  0.0000E+00  0.0000E+00  0.0000E+00  0.0000E+00  0.0000E+00  0.0000E+00  0.0000E+00  0.0000E+00  0.0000E+00  0.0000E+00  0.0000E+00  0.0000E+00  0.0000E+00
     -7.610  0.0000E+00  0.0000E+00  0.0000E+00  0.0000E+00  0.0000E+00  0.0000E+00  0.0000E+00  0.0000E+00  0.0000E+00  0.0000E+00  0.0000E+00  0.0000E+00  0.0000E+00  0.0000E+00  0.0000E+00  0.0000E+00  0.0000E+00  0.0000E+00
     -7.426  0.0000E+00  0.0000E+00  0.0000E+00  0.0000E+00  0.0000E+00  0.0000E+00  0.0000E+00  0.0000E+00  0.0000E+00  0.0000E+00  0.0000E+00  0.0000E+00  0.0000E+00  0.0000E+00  0.0000E+00  0.0000E+00  0.0000E+00  0.0000E+00
     -7.243  0.0000E+00  0.0000E+00  0.0000E+00  0.0000E+00  0.0000E+00  0.0000E+00  0.0000E+00  0.0000E+00  0.0000E+00  0.0000E+00  0.0000E+00  0.0000E+00  0.0000E+00  0.0000E+00  0.0000E+00  0.0000E+00  0.0000E+00  0.0000E+00
     -7.059  0.0000E+00  0.0000E+00  0.0000E+00  0.0000E+00  0.0000E+00  0.0000E+00  0.0000E+00  0.0000E+00  0.0000E+00  0.0000E+00  0.0000E+00  0.0000E+00  0.0000E+00  0.0000E+00  0.0000E+00  0.0000E+00  0.0000E+00  0.0000E+00
     -6.875  0.0000E+00  0.0000E+00  0.0000E+00  0.0000E+00  0.0000E+00  0.0000E+00  0.0000E+00  0.0000E+00  0.0000E+00  0.0000E+00  0.0000E+00  0.0000E+00  0.0000E+00  0.0000E+00  0.0000E+00  0.0000E+00  0.0000E+00  0.0000E+00
     -6.692  0.0000E+00  0.0000E+00  0.0000E+00  0.0000E+00  0.0000E+00  0.0000E+00  0.0000E+00  0.0000E+00  0.0000E+00  0.0000E+00  0.0000E+00  0.0000E+00  0.0000E+00  0.0000E+00  0.0000E+00  0.0000E+00  0.0000E+00  0.0000E+00
     -6.508  0.0000E+00  0.0000E+00  0.0000E+00  0.0000E+00  0.0000E+00  0.0000E+00  0.0000E+00  0.0000E+00  0.0000E+00  0.0000E+00  0.0000E+00  0.0000E+00  0.0000E+00  0.0000E+00  0.0000E+00  0.0000E+00  0.0000E+00  0.0000E+00
     -6.325  0.0000E+00  0.0000E+00  0.0000E+00  0.0000E+00  0.0000E+00  0.0000E+00  0.0000E+00  0.0000E+00  0.0000E+00  0.0000E+00  0.0000E+00  0.0000E+00  0.0000E+00  0.0000E+00  0.0000E+00  0.0000E+00  0.0000E+00  0.0000E+00
     -6.141  0.1643E-02  0.1654E-02  0.5131E-05  0.5166E-05  0.2565E-05  0.2583E-05  0.7096E-05  0.7144E-05  0.0000E+00  0.0000E+00  0.0000E+00  0.0000E+00  0.0000E+00  0.0000E+00  0.0000E+00  0.0000E+00  0.0000E+00  0.0000E+00
     -5.957  0.1600E-01  0.1599E-01  0.8112E-04  0.8114E-04  0.4056E-04  0.4057E-04  0.1242E-03  0.1244E-03  0.0000E+00  0.0000E+00  0.0000E+00  0.0000E+00  0.0000E+00  0.0000E+00  0.0000E+00  0.0000E+00  0.0000E+00  0.0000E+00
     -5.774  0.2175E-01  0.2175E-01  0.1770E-03  0.1771E-03  0.8895E-04  0.8899E-04  0.2561E-03  0.2562E-03  0.0000E+00  0.0000E+00  0.0000E+00  0.0000E+00  0.0000E+00  0.0000E+00  0.0000E+00  0.0000E+00  0.0000E+00  0.0000E+00
     -5.590  0.2993E-01  0.2993E-01  0.3119E-03  0.3119E-03  0.1590E-03  0.1591E-03  0.4460E-03  0.4462E-03  0.0000E+00  0.0000E+00  0.0000E+00  0.0000E+00  0.0000E+00  0.0000E+00  0.0000E+00  0.0000E+00  0.0000E+00  0.0000E+00
     -5.407  0.3250E-01  0.3250E-01  0.4053E-03  0.4053E-03  0.2162E-03  0.2162E-03  0.7663E-03  0.7664E-03  0.0000E+00  0.0000E+00  0.0000E+00  0.0000E+00  0.0000E+00  0.0000E+00  0.0000E+00  0.0000E+00  0.0000E+00  0.0000E+00
     -5.223  0.3737E-01  0.3736E-01  0.5261E-03  0.5261E-03  0.2861E-03  0.2860E-03  0.1041E-02  0.1041E-02  0.0000E+00  0.0000E+00  0.0000E+00  0.0000E+00  0.0000E+00  0.0000E+00  0.0000E+00  0.0000E+00  0.0000E+00  0.0000E+00
     -5.039  0.4285E-01  0.4284E-01  0.6916E-03  0.6915E-03  0.3773E-03  0.3773E-03  0.1314E-02  0.1314E-02  0.0000E+00  0.0000E+00  0.0000E+00  0.0000E+00  0.0000E+00  0.0000E+00  0.0000E+00  0.0000E+00  0.0000E+00  0.0000E+00
     -4.856  0.4730E-01  0.4728E-01  0.8931E-03  0.8929E-03  0.4887E-03  0.4885E-03  0.1681E-02  0.1681E-02  0.0000E+00  0.0000E+00  0.0000E+00  0.0000E+00  0.0000E+00  0.0000E+00  0.0000E+00  0.0000E+00  0.0000E+00  0.0000E+00
     -4.672  0.5185E-01  0.5183E-01  0.1066E-02  0.1065E-02  0.5992E-03  0.5990E-03  0.2095E-02  0.2094E-02  0.0000E+00  0.0000E+00  0.0000E+00  0.0000E+00  0.0000E+00  0.0000E+00  0.0000E+00  0.0000E+00  0.0000E+00  0.0000E+00
     -4.488  0.5757E-01  0.5755E-01  0.1268E-02  0.1267E-02  0.7341E-03  0.7337E-03  0.2503E-02  0.2502E-02  0.0000E+00  0.0000E+00  0.0000E+00  0.0000E+00  0.0000E+00  0.0000E+00  0.0000E+00  0.0000E+00  0.0000E+00  0.0000E+00
     -4.305  0.6539E-01  0.6535E-01  0.1603E-02  0.1602E-02  0.9481E-03  0.9475E-03  0.2874E-02  0.2873E-02  0.0000E+00  0.0000E+00  0.0000E+00  0.0000E+00  0.0000E+00  0.0000E+00  0.0000E+00  0.0000E+00  0.0000E+00  0.0000E+00
     -4.121  0.7468E-01  0.7464E-01  0.2004E-02  0.2003E-02  0.1204E-02  0.1203E-02  0.3304E-02  0.3303E-02  0.0000E+00  0.0000E+00  0.0000E+00  0.0000E+00  0.0000E+00  0.0000E+00  0.0000E+00  0.0000E+00  0.0000E+00  0.0000E+00
     -3.938  0.1047E+00  0.1046E+00  0.2889E-02  0.2885E-02  0.1780E-02  0.1778E-02  0.4789E-02  0.4785E-02  0.0000E+00  0.0000E+00  0.0000E+00  0.0000E+00  0.0000E+00  0.0000E+00  0.0000E+00  0.0000E+00  0.0000E+00  0.0000E+00
     -3.754  0.9123E-01  0.9122E-01  0.2955E-02  0.2954E-02  0.1967E-02  0.1966E-02  0.4224E-02  0.4224E-02  0.0000E+00  0.0000E+00  0.0000E+00  0.0000E+00  0.0000E+00  0.0000E+00  0.0000E+00  0.0000E+00  0.0000E+00  0.0000E+00
     -3.570  0.8723E-01  0.8724E-01  0.3181E-02  0.3180E-02  0.2178E-02  0.2177E-02  0.3963E-02  0.3964E-02  0.0000E+00  0.0000E+00  0.0000E+00  0.0000E+00  0.0000E+00  0.0000E+00  0.0000E+00  0.0000E+00  0.0000E+00  0.0000E+00
     -3.387  0.8176E-01  0.8187E-01  0.3437E-02  0.3437E-02  0.2406E-02  0.2407E-02  0.3548E-02  0.3554E-02  0.0000E+00  0.0000E+00  0.0000E+00  0.0000E+00  0.0000E+00  0.0000E+00  0.0000E+00  0.0000E+00  0.0000E+00  0.0000E+00
     -3.203  0.7730E-01  0.7732E-01  0.3649E-02  0.3645E-02  0.2564E-02  0.2562E-02  0.3073E-02  0.3073E-02  0.0000E+00  0.0000E+00  0.0000E+00  0.0000E+00  0.0000E+00  0.0000E+00  0.0000E+00  0.0000E+00  0.0000E+00  0.0000E+00
     -3.019  0.7177E-01  0.7185E-01  0.3512E-02  0.3507E-02  0.2470E-02  0.2468E-02  0.2573E-02  0.2574E-02  0.0000E+00  0.0000E+00  0.0000E+00  0.0000E+00  0.0000E+00  0.0000E+00  0.0000E+00  0.0000E+00  0.0000E+00  0.0000E+00
     -2.836  0.7831E-01  0.7840E-01  0.3970E-02  0.3955E-02  0.2684E-02  0.2678E-02  0.2144E-02  0.2141E-02  0.0000E+00  0.0000E+00  0.0000E+00  0.0000E+00  0.0000E+00  0.0000E+00  0.0000E+00  0.0000E+00  0.0000E+00  0.0000E+00
     -2.652  0.5303E-01  0.5328E-01  0.2220E-02  0.2208E-02  0.1503E-02  0.1499E-02  0.9615E-03  0.9581E-03  0.0000E+00  0.0000E+00  0.0000E+00  0.0000E+00  0.0000E+00  0.0000E+00  0.0000E+00  0.0000E+00  0.0000E+00  0.0000E+00
     -2.469  0.3472E-01  0.3490E-01  0.1277E-02  0.1266E-02  0.8602E-03  0.8563E-03  0.5284E-03  0.5247E-03  0.0000E+00  0.0000E+00  0.0000E+00  0.0000E+00  0.0000E+00  0.0000E+00  0.0000E+00  0.0000E+00  0.0000E+00  0.0000E+00
     -2.285  0.1918E-01  0.1931E-01  0.6164E-03  0.6102E-03  0.4129E-03  0.4107E-03  0.2555E-03  0.2533E-03  0.0000E+00  0.0000E+00  0.0000E+00  0.0000E+00  0.0000E+00  0.0000E+00  0.0000E+00  0.0000E+00  0.0000E+00  0.0000E+00
     -2.101  0.4685E-02  0.4761E-02  0.2042E-03  0.2006E-03  0.1272E-03  0.1256E-03  0.6057E-04  0.6004E-04  0.0000E+00  0.0000E+00  0.0000E+00  0.0000E+00  0.0000E+00  0.0000E+00  0.0000E+00  0.0000E+00  0.0000E+00  0.0000E+00
     -1.918  0.4019E-02  0.3962E-02  0.1468E-02  0.1466E-02  0.8132E-03  0.8110E-03  0.3686E-03  0.3676E-03  0.0000E+00  0.0000E+00  0.0000E+00  0.0000E+00  0.0000E+00  0.0000E+00  0.0000E+00  0.0000E+00  0.0000E+00  0.0000E+00
     -1.734  0.1102E-01  0.1090E-01  0.3283E-02  0.3286E-02  0.1842E-02  0.1842E-02  0.1084E-02  0.1085E-02  0.0000E+00  0.0000E+00  0.0000E+00  0.0000E+00  0.0000E+00  0.0000E+00  0.0000E+00  0.0000E+00  0.0000E+00  0.0000E+00
     -1.551  0.2036E-01  0.2019E-01  0.5293E-02  0.5301E-02  0.2979E-02  0.2981E-02  0.2024E-02  0.2026E-02  0.0000E+00  0.0000E+00  0.0000E+00  0.0000E+00  0.0000E+00  0.0000E+00  0.0000E+00  0.0000E+00  0.0000E+00  0.0000E+00
     -1.367  0.4093E-01  0.4067E-01  0.8612E-02  0.8618E-02  0.4771E-02  0.4772E-02  0.4271E-02  0.4270E-02  0.0000E+00  0.0000E+00  0.0000E+00  0.0000E+00  0.0000E+00  0.0000E+00  0.0000E+00  0.0000E+00  0.0000E+00  0.0000E+00
     -1.183  0.7169E-01  0.7169E-01  0.1207E-01  0.1210E-01  0.6506E-02  0.6521E-02  0.1015E-01  0.1017E-01  0.0000E+00  0.0000E+00  0.0000E+00  0.0000E+00  0.0000E+00  0.0000E+00  0.0000E+00  0.0000E+00  0.0000E+00  0.0000E+00
     -1.000  0.1147E+00  0.1146E+00  0.1870E-01  0.1870E-01  0.9678E-02  0.9679E-02  0.2858E-01  0.2857E-01  0.0000E+00  0.0000E+00  0.0000E+00  0.0000E+00  0.0000E+00  0.0000E+00  0.0000E+00  0.0000E+00  0.0000E+00  0.0000E+00
     -0.816  0.7772E-01  0.7770E-01  0.1294E-01  0.1294E-01  0.6862E-02  0.6861E-02  0.2046E-01  0.2045E-01  0.0000E+00  0.0000E+00  0.0000E+00  0.0000E+00  0.0000E+00  0.0000E+00  0.0000E+00  0.0000E+00  0.0000E+00  0.0000E+00
     -0.632  0.5826E-01  0.5826E-01  0.9739E-02  0.9740E-02  0.5301E-02  0.5300E-02  0.1481E-01  0.1481E-01  0.0000E+00  0.0000E+00  0.0000E+00  0.0000E+00  0.0000E+00  0.0000E+00  0.0000E+00  0.0000E+00  0.0000E+00  0.0000E+00
     -0.449  0.4866E-01  0.4866E-01  0.8240E-02  0.8240E-02  0.4542E-02  0.4542E-02  0.1260E-01  0.1260E-01  0.0000E+00  0.0000E+00  0.0000E+00  0.0000E+00  0.0000E+00  0.0000E+00  0.0000E+00  0.0000E+00  0.0000E+00  0.0000E+00
     -0.265  0.4048E-01  0.4049E-01  0.7029E-02  0.7030E-02  0.3904E-02  0.3905E-02  0.1096E-01  0.1096E-01  0.0000E+00  0.0000E+00  0.0000E+00  0.0000E+00  0.0000E+00  0.0000E+00  0.0000E+00  0.0000E+00  0.0000E+00  0.0000E+00
     -0.082  0.3404E-01  0.3405E-01  0.6099E-02  0.6099E-02  0.3384E-02  0.3385E-02  0.9858E-02  0.9857E-02  0.0000E+00  0.0000E+00  0.0000E+00  0.0000E+00  0.0000E+00  0.0000E+00  0.0000E+00  0.0000E+00  0.0000E+00  0.0000E+00
      0.102  0.2990E-01  0.2991E-01  0.5472E-02  0.5473E-02  0.3029E-02  0.3030E-02  0.9127E-02  0.9125E-02  0.0000E+00  0.0000E+00  0.0000E+00  0.0000E+00  0.0000E+00  0.0000E+00  0.0000E+00  0.0000E+00  0.0000E+00  0.0000E+00
      0.286  0.2688E-01  0.2688E-01  0.5006E-02  0.5007E-02  0.2752E-02  0.2753E-02  0.8572E-02  0.8571E-02  0.0000E+00  0.0000E+00  0.0000E+00  0.0000E+00  0.0000E+00  0.0000E+00  0.0000E+00  0.0000E+00  0.0000E+00  0.0000E+00
      0.469  0.2410E-01  0.2410E-01  0.4581E-02  0.4581E-02  0.2492E-02  0.2493E-02  0.8087E-02  0.8086E-02  0.0000E+00  0.0000E+00  0.0000E+00  0.0000E+00  0.0000E+00  0.0000E+00  0.0000E+00  0.0000E+00  0.0000E+00  0.0000E+00