    2    2    1    2
  0.2045223E+02  0.3867484E-09  0.3867485E-09  0.3867483E-09  0.5000000E-15
  1.000000000000000E-004
  CAR 
 unknown system                          
      8     29     32
 
  0.0000000E+00  0.0000000E+00  0.0000000E+00  0.1953125E-02
    1       -6.207524     -6.207769   1.000000   1.000000
    2        5.602867      5.603514   1.000000   1.000000
    3        5.602883      5.603529   1.000000   1.000000
    4        5.602898      5.603539   1.000000   1.000000
    5        8.164278      8.165590   0.000000   0.000000
    6        8.164286      8.165597   0.000000   0.000000
    7        8.164300      8.165606   0.000000   0.000000
    8        8.730155      8.729068   0.000000   0.000000
    9       13.317437     13.319275   0.000000   0.000000
   10       13.317443     13.319282   0.000000   0.000000
   11       13.475983     13.454749   0.000000   0.000000
   12       16.789445     16.787007   0.000000   0.000000
   13       16.789460     16.787023   0.000000   0.000000
   14       16.789462     16.787025   0.000000   0.000000
   15       20.870452     20.830932   0.000000   0.000000
   16       28.453155     28.449348   0.000000   0.000000
   17       28.453188     28.449365   0.000000   0.000000
   18       28.453241     28.449402   0.000000   0.000000
   19       29.535249     29.534747   0.000000   0.000000
   20       29.535282     29.534775   0.000000   0.000000
   21       30.975169     30.973978   0.000000   0.000000
   22       30.975200     30.973983   0.000000   0.000000
   23       30.975229     30.973992   0.000000   0.000000
   24       34.514830     34.518284   0.000000   0.000000
   25       34.514847     34.518299   0.000000   0.000000
   26       34.514852     34.518304   0.000000   0.000000
   27       40.089823     40.084858   0.000000   0.000000
   28       40.089883     40.084877   0.000000   0.000000
   29       40.089946     40.084901   0.000000   0.000000
   30       43.388503     43.346350   0.000000   0.000000
   31       43.866937     43.869882   0.000000   0.000000
   32       43.866947     43.869908   0.000000   0.000000
 
  0.1250000E+00  0.1387779E-16 -0.6938894E-17  0.1562500E-01
    1       -6.007159     -6.007361   1.000000   1.000000
    2        4.013020      4.013485   1.000000   1.000000
    3        5.321086      5.321838   1.000000   1.000000
    4        5.321105      5.321852   1.000000   1.000000
    5        8.047127      8.046404   0.000000   0.000000
    6        8.579140      8.580364   0.000000   0.000000
    7        8.579158      8.580375   0.000000   0.000000
    8       10.131229     10.129920   0.000000   0.000000
    9       12.844770     12.845837   0.000000   0.000000
   10       12.844773     12.845843   0.000000   0.000000
   11       14.252211     14.233234   0.000000   0.000000
   12       16.234179     16.225461   0.000000   0.000000
   13       17.934072     17.932441   0.000000   0.000000
   14       17.934079     17.932452   0.000000   0.000000
   15       22.085859     22.053016   0.000000   0.000000
   16       26.446607     26.444881   0.000000   0.000000
   17       26.446640     26.444898   0.000000   0.000000
   18       26.723802     26.720337   0.000000   0.000000
   19       29.194605     29.193008   0.000000   0.000000
   20       29.194647     29.193043   0.000000   0.000000
   21       31.515938     31.515055   0.000000   0.000000
   22       31.515967     31.515066   0.000000   0.000000
   23       32.415545     32.413081   0.000000   0.000000
   24       34.696699     34.700065   0.000000   0.000000
   25       36.656791     36.658910   0.000000   0.000000
   26       36.656818     36.658923   0.000000   0.000000
   27       37.732518     37.722568   0.000000   0.000000
   28       39.567205     39.562706   0.000000   0.000000
   29       39.567258     39.562721   0.000000   0.000000
   30       41.983954     41.983690   0.000000   0.000000
   31       41.983967     41.983710   0.000000   0.000000
   32       43.817690     43.817831   0.000000   0.000000
 
  0.2500000E+00  0.2775558E-16 -0.1387779E-16  0.1562500E-01
    1       -5.423047     -5.423105   1.000000   1.000000
    2        1.718670      1.718724   1.000000   1.000000
    3        4.859030      4.859912   1.000000   1.000000
    4        4.859048      4.859925   1.000000   1.000000
    5        7.562295      7.560167   0.000000   0.000000
    6        9.097016      9.098059   0.000000   0.000000
    7        9.097033      9.098069   0.000000   0.000000
    8       12.349816     12.345740   0.000000   0.000000
    9       12.795233     12.795780   0.000000   0.000000
   10       12.795238     12.795782   0.000000   0.000000
   11       14.532325     14.517095   0.000000   0.000000
   12       17.311833     17.297906   0.000000   0.000000
   13       20.119742     20.119290   0.000000   0.000000
   14       20.119743     20.119296   0.000000   0.000000
   15       23.281704     23.280189   0.000000   0.000000
   16       23.281724     23.280196   0.000000   0.000000
   17       23.362837     23.353647   0.000000   0.000000
   18       25.469364     25.447846   0.000000   0.000000
   19       29.369346     29.367361   0.000000   0.000000
   20       29.369390     29.367396   0.000000   0.000000
   21       31.870033     31.869625   0.000000   0.000000
   22       31.870058     31.869638   0.000000   0.000000
   23       33.125944     33.120824   0.000000   0.000000
   24       34.689037     34.678626   0.000000   0.000000
   25       35.206801     35.209880   0.000000   0.000000
   26       37.100205     37.102662   0.000000   0.000000
   27       37.100215     37.102672   0.000000   0.000000
   28       38.733484     38.727228   0.000000   0.000000
   29       38.733525     38.727241   0.000000   0.000000
   30       39.635667     39.633184   0.000000   0.000000
   31       39.635683     39.633203   0.000000   0.000000
   32       43.380915     43.382114   0.000000   0.000000
 
  0.3750000E+00  0.2775558E-16 -0.2775558E-16  0.1562500E-01
    1       -4.549117     -4.548856   1.000000   1.000000
    2       -0.264569     -0.265025   1.000000   1.000000
    3        4.536525      4.537487   1.000000   1.000000
    4        4.536543      4.537500   1.000000   1.000000
    5        7.197317      7.194700   0.000000   0.000000
    6        9.060924      9.061704   0.000000   0.000000
    7        9.060938      9.061713   0.000000   0.000000
    8       13.441343     13.427085   0.000000   0.000000
    9       14.145839     14.146328   0.000000   0.000000
   10       14.145852     14.146335   0.000000   0.000000
   11       15.109796     15.100796   0.000000   0.000000
   12       19.224951     19.225384   0.000000   0.000000
   13       19.224971     19.225397   0.000000   0.000000
   14       19.458210     19.446249   0.000000   0.000000
   15       22.061478     22.058625   0.000000   0.000000
   16       23.976342     23.974285   0.000000   0.000000
   17       23.976352     23.974299   0.000000   0.000000
   18       28.358997     28.332822   0.000000   0.000000
   19       29.192837     29.184926   0.000000   0.000000
   20       29.204170     29.201692   0.000000   0.000000
   21       29.204205     29.201717   0.000000   0.000000
   22       32.056215     32.056494   0.000000   0.000000
   23       32.056235     32.056508   0.000000   0.000000
   24       33.634146     33.635913   0.000000   0.000000
   25       33.634161     33.635925   0.000000   0.000000
   26       35.104634     35.091906   0.000000   0.000000
   27       35.882980     35.885508   0.000000   0.000000
   28       37.826808     37.820859   0.000000   0.000000
   29       37.826830     37.820869   0.000000   0.000000
   30       38.770979     38.767968   0.000000   0.000000
   31       38.770988     38.767991   0.000000   0.000000
   32       39.921147     39.912898   0.000000   0.000000
 
  0.5000000E+00  0.5551115E-16 -0.2775558E-16  0.7812500E-02
    1       -3.930464     -3.929777   1.000000   1.000000
    2       -1.261772     -1.262719   1.000000   1.000000
    3        4.425935      4.426925   1.000000   1.000000
    4        4.425954      4.426938   1.000000   1.000000
    5        7.069039      7.066327   0.000000   0.000000
    6        8.957640      8.958320   0.000000   0.000000
    7        8.957653      8.958328   0.000000   0.000000
    8       13.306368     13.290074   0.000000   0.000000
    9       16.101701     16.102482   0.000000   0.000000
   10       16.101728     16.102497   0.000000   0.000000
   11       16.777941     16.765317   0.000000   0.000000
   12       16.823490     16.823535   0.000000   0.000000
   13       16.823510     16.823546   0.000000   0.000000
   14       18.336446     18.334355   0.000000   0.000000
   15       24.736170     24.723048   0.000000   0.000000
   16       25.349962     25.347512   0.000000   0.000000
   17       27.048957     27.043826   0.000000   0.000000
   18       27.048959     27.043842   0.000000   0.000000
   19       27.169908     27.170607   0.000000   0.000000
   20       27.169921     27.170618   0.000000   0.000000
   21       31.030448     31.001423   0.000000   0.000000
   22       31.754879     31.756713   0.000000   0.000000
   23       31.754896     31.756731   0.000000   0.000000
   24       32.667818     32.668177   0.000000   0.000000
   25       32.667839     32.668197   0.000000   0.000000
   26       33.653732     33.639536   0.000000   0.000000
   27       36.256448     36.258531   0.000000   0.000000
   28       37.614300     37.608369   0.000000   0.000000
   29       37.614322     37.608386   0.000000   0.000000
   30       38.127665     38.124498   0.000000   0.000000
   31       38.127684     38.124528   0.000000   0.000000
   32       39.050892     39.047866   0.000000   0.000000
 
  0.0000000E+00  0.1250000E+00  0.1387779E-16  0.1171875E-01
    1       -5.939602     -5.939791   1.000000   1.000000
    2        4.250158      4.250711   1.000000   1.000000
    3        4.817973      4.818786   1.000000   1.000000
    4        4.817979      4.818790   1.000000   1.000000
    5        7.622568      7.621420   0.000000   0.000000
    6        9.277441      9.278491   0.000000   0.000000
    7        9.277443      9.278493   0.000000   0.000000
    8        9.818857      9.817562   0.000000   0.000000
    9       12.091411     12.091323   0.000000   0.000000
   10       13.615600     13.617426   0.000000   0.000000
   11       14.546442     14.527424   0.000000   0.000000
   12       17.255907     17.253682   0.000000   0.000000
   13       17.255911     17.253683   0.000000   0.000000
   14       17.731318     17.720554   0.000000   0.000000
   15       22.663415     22.634702   0.000000   0.000000
   16       25.963900     25.961184   0.000000   0.000000
   17       25.963921     25.961192   0.000000   0.000000
   18       27.200810     27.201417   0.000000   0.000000
   19       27.967521     27.966957   0.000000   0.000000
   20       28.813290     28.808999   0.000000   0.000000
   21       31.759326     31.757437   0.000000   0.000000
   22       32.106182     32.105483   0.000000   0.000000
   23       32.106199     32.105492   0.000000   0.000000
   24       36.456444     36.458146   0.000000   0.000000
   25       36.456451     36.458148   0.000000   0.000000
   26       36.963637     36.966038   0.000000   0.000000
   27       38.350488     38.346176   0.000000   0.000000
   28       38.350526     38.346187   0.000000   0.000000
   29       38.462678     38.448154   0.000000   0.000000
   30       40.615484     40.614309   0.000000   0.000000
   31       42.308369     42.307936   0.000000   0.000000
   32       43.277548     43.280548   0.000000   0.000000
 
  0.2500000E+00  0.1250000E+00  0.0000000E+00  0.2343750E-01
    1       -5.677249     -5.677376   1.000000   1.000000
    2        2.929206      2.929765   1.000000   1.000000
    3        4.016490      4.016649   1.000000   1.000000
    4        5.313492      5.314304   1.000000   1.000000
    5        8.572913      8.573754   0.000000   0.000000
    6        8.716446      8.717732   0.000000   0.000000
    7        8.934875      8.932446   0.000000   0.000000
    8       11.031882     11.029778   0.000000   0.000000
    9       11.964727     11.965072   0.000000   0.000000
   10       13.571192     13.571616   0.000000   0.000000
   11       15.255126     15.238593   0.000000   0.000000
   12       16.718991     16.708321   0.000000   0.000000
   13       17.885083     17.882011   0.000000   0.000000
   14       19.964443     19.963512   0.000000   0.000000
   15       23.119272     23.117690   0.000000   0.000000
   16       23.563893     23.538621   0.000000   0.000000
   17       26.313613     26.307496   0.000000   0.000000
   18       26.554739     26.552268   0.000000   0.000000
   19       27.056204     27.056230   0.000000   0.000000
   20       28.388259     28.387328   0.000000   0.000000
   21       31.766002     31.764382   0.000000   0.000000
   22       31.990212     31.989317   0.000000   0.000000
   23       33.998635     33.996410   0.000000   0.000000
   24       35.709014     35.696473   0.000000   0.000000
   25       35.984218     35.986670   0.000000   0.000000
   26       37.279372     37.275566   0.000000   0.000000
   27       37.492371     37.493625   0.000000   0.000000
   28       38.990547     38.991705   0.000000   0.000000
   29       39.096962     39.096391   0.000000   0.000000
   30       39.625380     39.622955   0.000000   0.000000
   31       41.161544     41.159607   0.000000   0.000000
   32       41.162839     41.159844   0.000000   0.000000
 
  0.3750000E+00  0.1250000E+00 -0.2775558E-16  0.4687500E-01
    1       -4.981485     -4.981425   1.000000   1.000000
    2        1.023534      1.023686   1.000000   1.000000
    3        3.339232      3.339198   1.000000   1.000000
    4        4.842572      4.843497   1.000000   1.000000
    5        8.259604      8.258793   0.000000   0.000000
    6        9.268806      9.269915   0.000000   0.000000
    7        9.440627      9.438487   0.000000   0.000000
    8       11.814272     11.810036   0.000000   0.000000
    9       12.084115     12.084254   0.000000   0.000000
   10       15.346599     15.334982   0.000000   0.000000
   11       15.562209     15.561321   0.000000   0.000000
   12       17.903635     17.891971   0.000000   0.000000
   13       19.456201     19.452813   0.000000   0.000000
   14       20.900538     20.896863   0.000000   0.000000
   15       21.830680     21.830952   0.000000   0.000000
   16       23.405971     23.401142   0.000000   0.000000
   17       24.256313     24.254630   0.000000   0.000000
   18       27.142502     27.121634   0.000000   0.000000
   19       27.341539     27.340216   0.000000   0.000000
   20       28.243336     28.240187   0.000000   0.000000
   21       31.341526     31.336053   0.000000   0.000000
   22       31.810990     31.809931   0.000000   0.000000
   23       32.629909     32.623799   0.000000   0.000000
   24       34.764607     34.765961   0.000000   0.000000
   25       34.930804     34.924987   0.000000   0.000000
   26       36.191408     36.187674   0.000000   0.000000
   27       36.371567     36.371466   0.000000   0.000000
   28       37.437764     37.436032   0.000000   0.000000
   29       38.405971     38.407268   0.000000   0.000000
   30       39.467547     39.461709   0.000000   0.000000
   31       39.775020     39.771442   0.000000   0.000000
   32       42.277941     42.279208   0.000000   0.000000
 
  0.5000000E+00  0.1250000E+00  0.0000000E+00  0.4687500E-01
    1       -4.080472     -4.080018   1.000000   1.000000
    2       -0.690748     -0.691188   1.000000   1.000000
    3        3.184741      3.184744   1.000000   1.000000
    4        4.362024      4.362996   1.000000   1.000000
    5        7.916663      7.915041   0.000000   0.000000
    6        9.213405      9.211132   0.000000   0.000000
    7        9.471697      9.472479   0.000000   0.000000
    8       13.430474     13.423376   0.000000   0.000000
    9       13.665310     13.665614   0.000000   0.000000
   10       14.737820     14.729270   0.000000   0.000000
   11       16.680589     16.676638   0.000000   0.000000
   12       17.882813     17.880675   0.000000   0.000000
   13       19.730487     19.730912   0.000000   0.000000
   14       20.082002     20.074035   0.000000   0.000000
   15       22.294571     22.289703   0.000000   0.000000
   16       24.060460     24.055689   0.000000   0.000000
   17       25.898617     25.897753   0.000000   0.000000
   18       27.505257     27.498242   0.000000   0.000000
   19       27.767282     27.763469   0.000000   0.000000
   20       27.894862     27.890828   0.000000   0.000000
   21       30.054858     30.056343   0.000000   0.000000
   22       30.476474     30.453988   0.000000   0.000000
   23       32.696032     32.694127   0.000000   0.000000
   24       32.777319     32.775671   0.000000   0.000000
   25       33.149413     33.149228   0.000000   0.000000
   26       34.461118     34.452738   0.000000   0.000000
   27       35.563348     35.563335   0.000000   0.000000
   28       36.566848     36.557780   0.000000   0.000000
   29       38.491017     38.492397   0.000000   0.000000
   30       38.787221     38.781311   0.000000   0.000000
   31       38.852171     38.847681   0.000000   0.000000
   32       40.164492     40.160241   0.000000   0.000000
 
 -0.3750000E+00  0.1250000E+00  0.5551115E-16  0.4687500E-01
    1       -3.843447     -3.842828   1.000000   1.000000
    2       -1.051630     -1.052264   1.000000   1.000000
    3        3.359608      3.359668   1.000000   1.000000
    4        4.073204      4.074171   1.000000   1.000000
    5        7.767768      7.765521   0.000000   0.000000
    6        9.094200      9.092668   0.000000   0.000000
    7        9.700912      9.701598   0.000000   0.000000
    8       12.908916     12.904564   0.000000   0.000000
    9       14.547315     14.536580   0.000000   0.000000
   10       16.022646     16.023194   0.000000   0.000000
   11       17.002335     16.995576   0.000000   0.000000
   12       17.142644     17.143037   0.000000   0.000000
   13       17.923351     17.920257   0.000000   0.000000
   14       20.431760     20.428557   0.000000   0.000000
   15       23.703461     23.694775   0.000000   0.000000
   16       25.068461     25.066822   0.000000   0.000000
   17       25.692166     25.684180   0.000000   0.000000
   18       26.453786     26.449996   0.000000   0.000000
   19       27.295305     27.293491   0.000000   0.000000
   20       27.667402     27.664334   0.000000   0.000000
   21       30.024106     30.023647   0.000000   0.000000
   22       31.322972     31.302430   0.000000   0.000000
   23       31.713793     31.714736   0.000000   0.000000
   24       32.811989     32.811544   0.000000   0.000000
   25       33.373223     33.368928   0.000000   0.000000
   26       34.948679     34.934259   0.000000   0.000000
   27       35.234997     35.233089   0.000000   0.000000
   28       35.615628     35.611110   0.000000   0.000000
   29       38.038059     38.031888   0.000000   0.000000
   30       38.372026     38.373863   0.000000   0.000000
   31       39.029528     39.026983   0.000000   0.000000
   32       40.124681     40.122062   0.000000   0.000000
 
 -0.2500000E+00  0.1250000E+00  0.0000000E+00  0.4687500E-01
    1       -4.681674     -4.681518   1.000000   1.000000
    2        0.377676      0.377635   1.000000   1.000000
    3        3.796252      3.796400   1.000000   1.000000
    4        4.051397      4.052328   1.000000   1.000000
    5        7.833226      7.830679   0.000000   0.000000
    6        9.197744      9.197695   0.000000   0.000000
    7       10.048100     10.048861   0.000000   0.000000
    8       11.044950     11.041633   0.000000   0.000000
    9       14.876151     14.876982   0.000000   0.000000
   10       14.884983     14.877119   0.000000   0.000000
   11       15.389680     15.381723   0.000000   0.000000
   12       18.875335     18.868501   0.000000   0.000000
   13       18.881318     18.875906   0.000000   0.000000
   14       20.642154     20.639278   0.000000   0.000000
   15       22.142582     22.140244   0.000000   0.000000
   16       23.045762     23.043994   0.000000   0.000000
   17       24.012067     24.006163   0.000000   0.000000
   18       27.238601     27.237680   0.000000   0.000000
   19       27.954226     27.942271   0.000000   0.000000
   20       28.928611     28.917618   0.000000   0.000000
   21       30.089281     30.082243   0.000000   0.000000
   22       30.846325     30.843498   0.000000   0.000000
   23       32.752148     32.752365   0.000000   0.000000
   24       34.344255     34.342336   0.000000   0.000000
   25       35.407126     35.408911   0.000000   0.000000
   26       35.584454     35.579359   0.000000   0.000000
   27       35.753663     35.745966   0.000000   0.000000
   28       36.942148     36.936324   0.000000   0.000000
   29       37.966462     37.968608   0.000000   0.000000
   30       38.468522     38.464314   0.000000   0.000000
   31       40.061686     40.060322   0.000000   0.000000
   32       41.445353     41.434660   0.000000   0.000000
 
 -0.1250000E+00  0.1250000E+00  0.1387779E-16  0.4687500E-01
    1       -5.479754     -5.479838   1.000000   1.000000
    2        2.398249      2.398684   1.000000   1.000000
    3        4.316173      4.317052   1.000000   1.000000
    4        4.379208      4.379621   1.000000   1.000000
    5        7.751082      7.749002   0.000000   0.000000
    6        9.228650      9.229184   0.000000   0.000000
    7       10.032774     10.033680   0.000000   0.000000
    8       10.344818     10.341963   0.000000   0.000000
    9       12.961905     12.961665   0.000000   0.000000
   10       13.776427     13.777676   0.000000   0.000000
   11       15.536397     15.521422   0.000000   0.000000
   12       17.099950     17.087269   0.000000   0.000000
   13       18.647762     18.646582   0.000000   0.000000
   14       19.894015     19.888249   0.000000   0.000000
   15       23.014773     23.013291   0.000000   0.000000
   16       23.474294     23.471522   0.000000   0.000000
   17       24.674116     24.653990   0.000000   0.000000
   18       26.909965     26.906040   0.000000   0.000000
   19       26.932072     26.931520   0.000000   0.000000
   20       28.374893     28.371579   0.000000   0.000000
   21       31.518560     31.516101   0.000000   0.000000
   22       32.490168     32.490084   0.000000   0.000000
   23       33.511044     33.507848   0.000000   0.000000
   24       35.092441     35.083208   0.000000   0.000000
   25       36.685957     36.682034   0.000000   0.000000
   26       36.996898     36.998798   0.000000   0.000000
   27       37.345330     37.340649   0.000000   0.000000
   28       38.184577     38.182599   0.000000   0.000000
   29       38.726982     38.722922   0.000000   0.000000
   30       39.429913     39.431248   0.000000   0.000000
   31       40.982396     40.983030   0.000000   0.000000
   32       41.011702     41.011345   0.000000   0.000000
 
  0.0000000E+00  0.2500000E+00  0.2775558E-16  0.1171875E-01
    1       -5.145509     -5.145534   1.000000   1.000000
    2        2.084481      2.085236   1.000000   1.000000
    3        3.757044      3.757943   1.000000   1.000000
    4        3.757047      3.757945   1.000000   1.000000
    5        6.758324      6.754644   0.000000   0.000000
    6        8.742506      8.738766   0.000000   0.000000
    7       11.293753     11.294452   0.000000   0.000000
    8       11.293756     11.294455   0.000000   0.000000
    9       13.467383     13.467066   0.000000   0.000000
   10       14.508399     14.510188   0.000000   0.000000
   11       16.899395     16.882075   0.000000   0.000000
   12       18.524518     18.523275   0.000000   0.000000
   13       18.524528     18.523278   0.000000   0.000000
   14       19.230803     19.212581   0.000000   0.000000
   15       22.819597     22.816693   0.000000   0.000000
   16       22.819610     22.816697   0.000000   0.000000
   17       23.775693     23.776871   0.000000   0.000000
   18       25.659753     25.659687   0.000000   0.000000
   19       26.329837     26.313538   0.000000   0.000000
   20       30.260192     30.252523   0.000000   0.000000
   21       31.578287     31.572945   0.000000   0.000000
   22       32.559529     32.559871   0.000000   0.000000
   23       32.559542     32.559880   0.000000   0.000000
   24       34.760167     34.756496   0.000000   0.000000
   25       34.760175     34.756503   0.000000   0.000000
   26       34.929241     34.915832   0.000000   0.000000
   27       35.598205     35.595162   0.000000   0.000000
   28       39.900068     39.902347   0.000000   0.000000
   29       40.359162     40.358990   0.000000   0.000000
   30       40.575223     40.575585   0.000000   0.000000
   31       40.575239     40.575586   0.000000   0.000000
   32       42.249508     42.252585   0.000000   0.000000
 
  0.5000000E+00  0.2500000E+00  0.0000000E+00  0.2343750E-01
    1       -4.204564     -4.204268   1.000000   1.000000
    2        0.165083      0.165633   1.000000   1.000000
    3        1.938104      1.937040   1.000000   1.000000
    4        4.302465      4.303424   1.000000   1.000000
    5        8.043973      8.042105   0.000000   0.000000
    6       10.355278     10.356488   0.000000   0.000000
    7       10.685703     10.681141   0.000000   0.000000
    8       11.644228     11.640811   0.000000   0.000000
    9       12.061636     12.061492   0.000000   0.000000
   10       15.124770     15.121011   0.000000   0.000000
   11       18.095944     18.084809   0.000000   0.000000
   12       18.631758     18.630790   0.000000   0.000000
   13       18.947028     18.939440   0.000000   0.000000
   14       22.107420     22.099568   0.000000   0.000000
   15       22.487141     22.487466   0.000000   0.000000
   16       22.800513     22.796961   0.000000   0.000000
   17       24.069690     24.070155   0.000000   0.000000
   18       26.557748     26.558025   0.000000   0.000000
   19       27.100947     27.097420   0.000000   0.000000
   20       29.272645     29.261546   0.000000   0.000000
   21       30.156467     30.133683   0.000000   0.000000
   22       30.595600     30.594898   0.000000   0.000000
   23       32.074292     32.072700   0.000000   0.000000
   24       32.406294     32.404959   0.000000   0.000000
   25       33.035127     33.029615   0.000000   0.000000
   26       34.562907     34.565557   0.000000   0.000000
   27       35.594791     35.585437   0.000000   0.000000
   28       36.455407     36.455543   0.000000   0.000000
   29       39.298465     39.296547   0.000000   0.000000
   30       39.511727     39.506200   0.000000   0.000000
   31       41.260548     41.264103   0.000000   0.000000
   32       42.173771     42.173458   0.000000   0.000000
 
 -0.3750000E+00  0.2500000E+00  0.0000000E+00  0.4687500E-01
    1       -3.348193     -3.347506   1.000000   1.000000
    2       -0.968123     -0.967993   1.000000   1.000000
    3        1.697248      1.696192   1.000000   1.000000
    4        3.756932      3.757892   1.000000   1.000000
    5        7.462645      7.459230   0.000000   0.000000
    6       11.003978     10.999877   0.000000   0.000000
    7       11.049166     11.050012   0.000000   0.000000
    8       12.487680     12.485257   0.000000   0.000000
    9       13.494907     13.491528   0.000000   0.000000
   10       13.554199     13.554350   0.000000   0.000000
   11       18.081851     18.070893   0.000000   0.000000
   12       20.285387     20.285967   0.000000   0.000000
   13       20.491107     20.484582   0.000000   0.000000
   14       21.425636     21.421858   0.000000   0.000000
   15       21.880914     21.877962   0.000000   0.000000
   16       23.782373     23.782848   0.000000   0.000000
   17       24.798096     24.796006   0.000000   0.000000
   18       25.337224     25.322858   0.000000   0.000000
   19       27.177326     27.174518   0.000000   0.000000
   20       27.486493     27.483317   0.000000   0.000000
   21       30.066498     30.061637   0.000000   0.000000
   22       30.673160     30.669190   0.000000   0.000000
   23       31.138022     31.141249   0.000000   0.000000
   24       31.675256     31.668757   0.000000   0.000000
   25       33.200289     33.185966   0.000000   0.000000
   26       33.946733     33.933922   0.000000   0.000000
   27       34.552002     34.553418   0.000000   0.000000
   28       35.358529     35.355150   0.000000   0.000000
   29       38.689893     38.682077   0.000000   0.000000
   30       39.346257     39.343424   0.000000   0.000000
   31       40.974733     40.977164   0.000000   0.000000
   32       41.196161     41.193617   0.000000   0.000000
 
 -0.2500000E+00  0.2500000E+00  0.2775558E-16  0.4687500E-01
    1       -3.545110     -3.544604   1.000000   1.000000
    2       -0.718475     -0.718172   1.000000   1.000000
    3        2.144236      2.143500   1.000000   1.000000
    4        3.446084      3.447028   1.000000   1.000000
    5        7.148685      7.144646   0.000000   0.000000
    6       10.037251     10.033398   0.000000   0.000000
    7       11.248916     11.247923   0.000000   0.000000
    8       11.482997     11.483665   0.000000   0.000000
    9       15.688243     15.682278   0.000000   0.000000
   10       16.065918     16.066284   0.000000   0.000000
   11       17.653936     17.654836   0.000000   0.000000
   12       18.120628     18.117746   0.000000   0.000000
   13       18.476470     18.466311   0.000000   0.000000
   14       22.253377     22.241411   0.000000   0.000000
   15       23.160395     23.160241   0.000000   0.000000
   16       23.965115     23.963785   0.000000   0.000000