       N       E                     dE             d eps       ncg     rms          rms(c)
DAV:   1    -0.129043209914E+02   -0.12904E+02   -0.34747E+03  3712   0.193E+02
DAV:   2    -0.191031886624E+02   -0.61989E+01   -0.61989E+01  5568   0.190E+01
DAV:   3    -0.191154624284E+02   -0.12274E-01   -0.12274E-01  3744   0.104E+00
DAV:   4    -0.191154758790E+02   -0.13451E-04   -0.13451E-04  7264   0.361E-02
DAV:   5    -0.191154758791E+02   -0.50363E-10   -0.50208E-10  3776   0.532E-05    0.218E+01
DAV:   6    -0.133954976572E+02    0.57200E+01   -0.17823E+00  5184   0.182E+00    0.130E+01
DAV:   7    -0.107362444987E+02    0.26593E+01   -0.42729E+00  5344   0.279E+00    0.229E+00
DAV:   8    -0.108287376321E+02   -0.92493E-01   -0.44242E-02  3808   0.707E-01    0.693E-01
DAV:   9    -0.108433692431E+02   -0.14632E-01   -0.68395E-02  4512   0.420E-01    0.236E-01
DAV:  10    -0.108467229146E+02   -0.33537E-02   -0.81619E-03  4064   0.209E-01    0.635E-02
DAV:  11    -0.108466377068E+02    0.85208E-04   -0.24885E-04  5312   0.335E-02
   1 F= -.10846638E+02 E0= -.10846638E+02  d E =0.000000E+00  mag=     0.0000
