 vasp.5.4.1 24Jun15 (build Feb 01 2016 23:38:11) complex                        
  
 executed on           IFC91_impi date 2016.08.04  10:22:35
 running on   32 total cores
 distrk:  each k-point on   32 cores,    1 groups
 distr:  one band on NCORES_PER_BAND=   1 cores,   32 groups


--------------------------------------------------------------------------------------------------------


 INCAR:
 POTCAR:   PAW_PBE Si 05Jan2001                   

 ----------------------------------------------------------------------------- 
|                                                                             |
|           W    W    AA    RRRRR   N    N  II  N    N   GGGG   !!!           |
|           W    W   A  A   R    R  NN   N  II  NN   N  G    G  !!!           |
|           W    W  A    A  R    R  N N  N  II  N N  N  G       !!!           |
|           W WW W  AAAAAA  RRRRR   N  N N  II  N  N N  G  GGG   !            |
|           WW  WW  A    A  R   R   N   NN  II  N   NN  G    G                |
|           W    W  A    A  R    R  N    N  II  N    N   GGGG   !!!           |
|                                                                             |
|      For optimal performance we recommend to set                            |
|        NCORE= 4 - approx SQRT( number of cores)                             |
|      NCORE specifies how many cores store one orbital (NPAR=cpu/NCORE).     |
|      This setting can  greatly improve the performance of VASP for DFT.     |
|      The default, NPAR=number of cores might be grossly inefficient         |
|      on modern multi-core architectures or massively parallel machines.     |
|      Do your own testing !!!!                                               |
|      Unfortunately you need to use the default for GW and RPA calculations. |
|      (for HF NCORE is supported but not extensively tested yet)             |
|                                                                             |
 ----------------------------------------------------------------------------- 

 POTCAR:   PAW_PBE Si 05Jan2001                   
   VRHFIN =Si: s2p2                                                             
   LEXCH  = PE                                                                  
   EATOM  =   103.0669 eV,    7.5752 Ry                                         
                                                                                
   TITEL  = PAW_PBE Si 05Jan2001                                                
   LULTRA =        F    use ultrasoft PP ?                                      
   IUNSCR =        1    unscreen: 0-lin 1-nonlin 2-no                           
   RPACOR =    1.500    partial core radius                                     
   POMASS =   28.085; ZVAL   =    4.000    mass and valenz                      
   RCORE  =    1.900    outmost cutoff radius                                   
   RWIGS  =    2.480; RWIGS  =    1.312    wigner-seitz radius (au A)           
   ENMAX  =  245.345; ENMIN  =  184.009 eV                                      
   ICORE  =        2    local potential                                         
   LCOR   =        T    correct aug charges                                     
   LPAW   =        T    paw PP                                                  
   EAUG   =  322.069                                                            
   DEXC   =    -.007                                                            
   RMAX   =    2.944    core radius for proj-oper                               
   RAUG   =    1.300    factor for augmentation sphere                          
   RDEP   =    1.993    radius for radial grids                                 
   QCUT   =   -4.246; QGAM   =    8.493    optimization parameters              
                                                                                
   Description                                                                  
     l     E      TYP  RCUT    TYP  RCUT                                        
     0   .000     23  1.900                                                     
     0   .000     23  1.900                                                     
     1   .000     23  1.900                                                     
     1   .000     23  1.900                                                     
     2   .000      7  1.900                                                     
  local pseudopotential read in
  partial core-charges read in
  atomic valenz-charges read in
  non local Contribution for L=           0  read in
    real space projection operators read in
  non local Contribution for L=           0  read in
    real space projection operators read in
  non local Contribution for L=           1  read in
    real space projection operators read in
  non local Contribution for L=           1  read in
    real space projection operators read in
    PAW grid and wavefunctions read in
 
   number of l-projection  operators is LMAX  =           4
   number of lm-projection operators is LMMAX =           8
 

 ----------------------------------------------------------------------------- 
|                                                                             |
|  ADVICE TO THIS USER RUNNING 'VASP/VAMP'   (HEAR YOUR MASTER'S VOICE ...):  |
|                                                                             |
|      You have a (more or less) 'small supercell' and for smaller cells      |
|      it is recommended  to use the reciprocal-space projection scheme!      |
|      The real space optimization is not  efficient for small cells and it   |
|      is also less accurate ...                                              |
|      Therefore set LREAL=.FALSE. in the  INCAR file                         |
|                                                                             |
 ----------------------------------------------------------------------------- 

 Optimization of the real space projectors (new method)

 maximal supplied QI-value         = 19.84
 optimisation between [QCUT,QGAM] = [ 11.51, 23.22] = [ 37.09,150.92] Ry 
 Optimized for a Real-space Cutoff    1.21 Angstroem

   l    n(q)    QCUT    max X(q) W(low)/X(q) W(high)/X(q)  e(spline) 
   0      8    11.508     8.708    0.18E-04    0.44E-05    0.47E-08
   0      8    11.508   106.241    0.70E-04    0.15E-03    0.51E-07
   1      8    11.508     5.901    0.63E-05    0.23E-04    0.21E-07
   1      8    11.508    73.241    0.15E-03    0.36E-04    0.79E-07
 PAW_PBE Si 05Jan2001                   :
 energy of atom  1       EATOM= -103.0669
 kinetic energy error for atom=    0.0005 (will be added to EATOM!!)
 
 
 POSCAR: Si2                                     
  positions in direct lattice
  No initial velocities read in
 exchange correlation table for  LEXCH =        8
   RHO(1)=    0.500       N(1)  =     2000
   RHO(2)=  100.500       N(2)  =     4000
 


--------------------------------------------------------------------------------------------------------


 ion  position               nearest neighbor table
   1  0.000  0.000  0.000-   2 2.37   2 2.37   2 2.37   2 2.37
   2  0.750  0.500  0.750-   1 2.37   1 2.37   1 2.37   1 2.37
 
  LATTYP: Found a face centered cubic cell.
 ALAT       =     5.4694490688
  
  Lattice vectors:
  
 A1 = (   1.9337420000,   3.3493400000,   0.0000000000)
 A2 = (   0.0000000000,   2.2328910000,  -3.1577880000)
 A3 = (  -1.9337420000,   3.3493400000,   0.0000000000)


Analysis of symmetry for initial positions (statically):
=====================================================================
 Subroutine PRICEL returns:
 Original cell was already a primitive cell.
 

 Routine SETGRP: Setting up the symmetry group for a 
 face centered cubic supercell.


 Subroutine GETGRP returns: Found 48 space group operations
 (whereof 24 operations were pure point group operations)
 out of a pool of 48 trial point group operations.


The static configuration has the point symmetry T_d .
 The point group associated with its full space group is O_h .


Analysis of symmetry for dynamics (positions and initial velocities):
=====================================================================
 Subroutine PRICEL returns:
 Original cell was already a primitive cell.
 

 Routine SETGRP: Setting up the symmetry group for a 
 face centered cubic supercell.


 Subroutine GETGRP returns: Found 48 space group operations
 (whereof 24 operations were pure point group operations)
 out of a pool of 48 trial point group operations.


The dynamic configuration has the point symmetry T_d .
 The point group associated with its full space group is O_h .


Analysis of structural, dynamic, and magnetic symmetry:
=====================================================================
 Subroutine PRICEL returns:
 Original cell was already a primitive cell.
 

 Routine SETGRP: Setting up the symmetry group for a 
 face centered cubic supercell.


 Subroutine GETGRP returns: Found 48 space group operations
 (whereof 24 operations were pure point group operations)
 out of a pool of 48 trial point group operations.


The magnetic configuration has the point symmetry T_d .
 The point group associated with its full space group is O_h .


 Subroutine INISYM returns: Found 48 space group operations
 (whereof 24 operations are pure point group operations),
 and found     1 'primitive' translations

 
 
 KPOINTS: Automatic kpoint scheme                 

Automatic generation of k-mesh.
Space group operators:
 irot       det(A)        alpha          n_x          n_y          n_z        tau_x        tau_y        tau_z
    1     1.000000     0.000000     1.000000     0.000000     0.000000     0.000000     0.000000     0.000000
    2     1.000000   120.000000    -0.000001    -0.942809     0.333334     0.000000     0.000000     0.000000
    3     1.000000   120.000000    -0.000001     0.942809    -0.333334     0.000000     0.000000     0.000000
    4    -1.000000    90.000000    -0.707107    -0.408248     0.577351     0.000000     0.000000     0.000000
    5    -1.000000   180.000000     0.500000     0.866025    -0.000001     0.000000     0.000000     0.000000
    6    -1.000000    90.000000    -0.000000     0.816497     0.577350     0.000000     0.000000     0.000000
    7     1.000000   180.000000    -0.707107    -0.408248     0.577350     0.000000     0.000000     0.000000
    8     1.000000   120.000000     0.816497     0.471405     0.333333     0.000000     0.000000     0.000000
    9     1.000000   120.000000     0.000001     0.000000     1.000000     0.000000     0.000000     0.000000
   10    -1.000000    90.000000     0.707107     0.408248    -0.577350     0.000000     0.000000     0.000000
   11    -1.000000    90.000000     0.707107    -0.408248     0.577350     0.000000     0.000000     0.000000
   12    -1.000000   180.000000     0.000000    -0.577350     0.816497     0.000000     0.000000     0.000000
   13     1.000000   120.000000     0.000001    -0.000000    -1.000000     0.000000     0.000000     0.000000
   14     1.000000   120.000000     0.816497    -0.471405    -0.333333     0.000000     0.000000     0.000000
   15     1.000000   180.000000    -0.707107     0.408248    -0.577350     0.000000     0.000000     0.000000
   16    -1.000000    90.000000    -0.000000    -0.816497    -0.577350     0.000000     0.000000     0.000000
   17    -1.000000   180.000000    -0.500000     0.866025    -0.000001     0.000000     0.000000     0.000000
   18    -1.000000    90.000000    -0.707107     0.408248    -0.577351     0.000000     0.000000     0.000000
   19     1.000000   120.000000    -0.816497    -0.471404    -0.333333     0.000000     0.000000     0.000000
   20     1.000000   180.000000     0.000000    -0.816497    -0.577350     0.000000     0.000000     0.000000
   21     1.000000   120.000000    -0.816497     0.471404     0.333333     0.000000     0.000000     0.000000
   22    -1.000000   180.000000    -0.500000     0.288675     0.816496     0.000000     0.000000     0.000000
   23    -1.000000   180.000000     0.500000     0.288675     0.816496     0.000000     0.000000     0.000000
   24    -1.000000   180.000000     1.000000     0.000000     0.000000     0.000000     0.000000     0.000000
   25    -1.000000     0.000000     1.000000     0.000000     0.000000    -0.250000     0.500000    -0.250000
   26    -1.000000   120.000000    -0.000001    -0.942809     0.333334    -0.250000     0.500000    -0.250000
   27    -1.000000   120.000000    -0.000001     0.942809    -0.333334    -0.250000     0.500000    -0.250000
   28     1.000000    90.000000    -0.707107    -0.408248     0.577351    -0.250000     0.500000    -0.250000
   29     1.000000   180.000000     0.500000     0.866025    -0.000001    -0.250000     0.500000    -0.250000
   30     1.000000    90.000000    -0.000000     0.816497     0.577350    -0.250000     0.500000    -0.250000
   31    -1.000000   180.000000    -0.707107    -0.408248     0.577350    -0.250000     0.500000    -0.250000
   32    -1.000000   120.000000     0.816497     0.471405     0.333333    -0.250000     0.500000    -0.250000
   33    -1.000000   120.000000     0.000001     0.000000     1.000000    -0.250000     0.500000    -0.250000
   34     1.000000    90.000000     0.707107     0.408248    -0.577350    -0.250000     0.500000    -0.250000
   35     1.000000    90.000000     0.707107    -0.408248     0.577350    -0.250000     0.500000    -0.250000
   36     1.000000   180.000000     0.000000    -0.577350     0.816497    -0.250000     0.500000    -0.250000
   37    -1.000000   120.000000     0.000001    -0.000000    -1.000000    -0.250000     0.500000    -0.250000
   38    -1.000000   120.000000     0.816497    -0.471405    -0.333333    -0.250000     0.500000    -0.250000
   39    -1.000000   180.000000    -0.707107     0.408248    -0.577350    -0.250000     0.500000    -0.250000
   40     1.000000    90.000000    -0.000000    -0.816497    -0.577350    -0.250000     0.500000    -0.250000
   41     1.000000   180.000000    -0.500000     0.866025    -0.000001    -0.250000     0.500000    -0.250000
   42     1.000000    90.000000    -0.707107     0.408248    -0.577351    -0.250000     0.500000    -0.250000
   43    -1.000000   120.000000    -0.816497    -0.471404    -0.333333    -0.250000     0.500000    -0.250000
   44    -1.000000   180.000000     0.000000    -0.816497    -0.577350    -0.250000     0.500000    -0.250000
   45    -1.000000   120.000000    -0.816497     0.471404     0.333333    -0.250000     0.500000    -0.250000
   46     1.000000   180.000000    -0.500000     0.288675     0.816496    -0.250000     0.500000    -0.250000
   47     1.000000   180.000000     0.500000     0.288675     0.816496    -0.250000     0.500000    -0.250000
   48     1.000000   180.000000     1.000000     0.000000     0.000000    -0.250000     0.500000    -0.250000
 
 Subroutine IBZKPT returns following result:
 ===========================================
 
 Found     29 irreducible k-points:
 
 Following reciprocal coordinates:
            Coordinates               Weight
  0.000000  0.000000  0.000000      1.000000
  0.125000  0.000000 -0.000000      8.000000
  0.250000  0.000000 -0.000000      8.000000
  0.375000  0.000000 -0.000000      8.000000
  0.500000  0.000000 -0.000000      4.000000
  0.000000  0.125000  0.000000      6.000000
  0.250000  0.125000  0.000000     12.000000
  0.375000  0.125000 -0.000000     24.000000
  0.500000  0.125000  0.000000     24.000000
 -0.375000  0.125000  0.000000     24.000000
 -0.250000  0.125000  0.000000     24.000000
 -0.125000  0.125000  0.000000     24.000000
  0.000000  0.250000  0.000000      6.000000
  0.500000  0.250000  0.000000     12.000000
 -0.375000  0.250000  0.000000     24.000000
 -0.250000  0.250000  0.000000     24.000000
 -0.125000  0.250000 -0.000000     24.000000
  0.000000  0.375000  0.000000      6.000000
 -0.250000  0.375000  0.000000     12.000000
 -0.125000  0.375000  0.000000     24.000000
  0.000000  0.500000  0.000000      3.000000
  0.375000  0.125000  0.125000     24.000000
  0.500000  0.125000  0.125000     48.000000
 -0.375000  0.125000  0.125000     24.000000
 -0.375000  0.250000  0.125000     24.000000
 -0.250000  0.250000  0.125000     48.000000
 -0.125000  0.250000  0.125000     24.000000
 -0.125000  0.375000  0.125000     12.000000
 -0.250000  0.250000  0.250000      6.000000
 
 Following cartesian coordinates:
            Coordinates               Weight
  0.000000  0.000000  0.000000      1.000000
  0.032321 -0.018660 -0.013195      8.000000
  0.064642 -0.037321 -0.026390      8.000000
  0.096962 -0.055981 -0.039585      8.000000
  0.129283 -0.074642 -0.052780      4.000000
  0.000000  0.037321  0.026390      6.000000
  0.064642  0.000000  0.000000     12.000000
  0.096962 -0.018660 -0.013195     24.000000
  0.129283 -0.037321 -0.026390     24.000000
 -0.096962  0.093302  0.065974     24.000000
 -0.064642  0.074642  0.052780     24.000000
 -0.032321  0.055981  0.039585     24.000000
  0.000000  0.074642  0.052780      6.000000
  0.129283  0.000000  0.000000     12.000000
 -0.096962  0.130623  0.092364     24.000000
 -0.064642  0.111962  0.079169     24.000000
 -0.032321  0.093302  0.065974     24.000000
  0.000000  0.111962  0.079169      6.000000
 -0.064642  0.149283  0.105559     12.000000
 -0.032321  0.130623  0.092364     24.000000
  0.000000  0.149283  0.105559      3.000000
  0.096962 -0.018660  0.026390     24.000000
  0.129283 -0.037321  0.013195     48.000000
 -0.096962  0.093302  0.105559     24.000000
 -0.096962  0.130623  0.131949     24.000000
 -0.064642  0.111962  0.118754     48.000000
 -0.032321  0.093302  0.105559     24.000000
 -0.032321  0.130623  0.131949     12.000000
 -0.064642  0.111962  0.158339      6.000000
 
 TETIRR: Found    336 inequivalent tetrahedra from     3072


--------------------------------------------------------------------------------------------------------




 Dimension of arrays:
   k-points           NKPTS =     29   k-points in BZ     NKDIM =     29   number of bands    NBANDS=     32
   number of dos      NEDOS =    301   number of ions     NIONS =      2
   non local maximal  LDIM  =      4   non local SUM 2l+1 LMDIM =      8
   total plane-waves  NPLWV =  27000
   max r-space proj   IRMAX =   4958   max aug-charges    IRDMAX=  22266
   dimension x,y,z NGX =    30 NGY =   30 NGZ =   30
   dimension x,y,z NGXF=    60 NGYF=   60 NGZF=   60
   support grid    NGXF=    60 NGYF=   60 NGZF=   60
   ions per type =               2
 NGX,Y,Z   is equivalent  to a cutoff of  12.90, 12.90, 12.90 a.u.
 NGXF,Y,Z  is equivalent  to a cutoff of  25.79, 25.79, 25.79 a.u.


 I would recommend the setting:
   dimension x,y,z NGX =    29 NGY =   29 NGZ =   29
 SYSTEM =  unknown system                          
 POSCAR =  Si2                                     

 Startparameter for this run:
   NWRITE =      2    write-flag & timer
   PREC   = accura    normal or accurate (medium, high low for compatibility)
   ISTART =      0    job   : 0-new  1-cont  2-samecut
   ICHARG =      0    charge: 1-file 2-atom 10-const
   ISPIN  =      2    spin polarized calculation?
   LNONCOLLINEAR =      F non collinear calculations
   LSORBIT =      F    spin-orbit coupling
   INIWAV =      1    electr: 0-lowe 1-rand  2-diag
   LASPH  =      F    aspherical Exc in radial PAW
   METAGGA=      F    non-selfconsistent MetaGGA calc.

 Electronic Relaxation 1
   ENCUT  =  520.0 eV  38.22 Ry    6.18 a.u.   7.19  7.19  7.19*2*pi/ulx,y,z
   ENINI  =  520.0     initial cutoff
   ENAUG  =  322.1 eV  augmentation charge cutoff
   NELM   =    100;   NELMIN=  2; NELMDL= -5     # of ELM steps 
   EDIFF  = 0.1E-03   stopping-criterion for ELM
   LREAL  =      T    real-space projection
   NLSPLINE    = F    spline interpolate recip. space projectors
   LCOMPAT=      F    compatible to vasp.4.4
   GGA_COMPAT  = T    GGA compatible to vasp.4.4-vasp.4.6
   LMAXPAW     = -100 max onsite density
   LMAXMIX     =    2 max onsite mixed and CHGCAR
   VOSKOWN=      0    Vosko Wilk Nusair interpolation
   ROPT   =   -0.00025
 Ionic relaxation
   EDIFFG = 0.1E-02   stopping-criterion for IOM
   NSW    =      0    number of steps for IOM
   NBLOCK =      1;   KBLOCK =      1    inner block; outer block 
   IBRION =     -1    ionic relax: 0-MD 1-quasi-New 2-CG
   NFREE  =      0    steps in history (QN), initial steepest desc. (CG)
   ISIF   =      3    stress and relaxation
   IWAVPR =     10    prediction:  0-non 1-charg 2-wave 3-comb
   ISYM   =      2    0-nonsym 1-usesym 2-fastsym
   LCORR  =      T    Harris-Foulkes like correction to forces

   POTIM  = 0.5000    time-step for ionic-motion
   TEIN   =    0.0    initial temperature
   TEBEG  =    0.0;   TEEND  =   0.0 temperature during run
   SMASS  =  -3.00    Nose mass-parameter (am)
   estimated Nose-frequenzy (Omega)   =  0.10E-29 period in steps =****** mass=  -0.342E-27a.u.
   SCALEE = 1.0000    scale energy and forces
   NPACO  =    256;   APACO  = 16.0  distance and # of slots for P.C.
   PSTRESS=    0.0 pullay stress

  Mass of Ions in am
   POMASS =  28.09
  Ionic Valenz
   ZVAL   =   4.00
  Atomic Wigner-Seitz radii
   RWIGS  =  -1.00
  virtual crystal weights 
   VCA    =   1.00
   NELECT =       8.0000    total number of electrons
   NUPDOWN=      -1.0000    fix difference up-down

 DOS related values:
   EMIN   =  10.00;   EMAX   =-10.00  energy-range for DOS
   EFERMI =   0.00
   ISMEAR =    -5;   SIGMA  =   0.05  broadening in eV -4-tet -1-fermi 0-gaus

 Electronic relaxation 2 (details)
   IALGO  =     38    algorithm
   LDIAG  =      T    sub-space diagonalisation (order eigenvalues)
   LSUBROT=      F    optimize rotation matrix (better conditioning)
   TURBO    =      0    0=normal 1=particle mesh
   IRESTART =      0    0=no restart 2=restart with 2 vectors
   NREBOOT  =      0    no. of reboots
   NMIN     =      0    reboot dimension
   EREF     =   0.00    reference energy to select bands
   IMIX   =      4    mixing-type and parameters
     AMIX     =   0.40;   BMIX     =  1.00
     AMIX_MAG =   1.60;   BMIX_MAG =  1.00
     AMIN     =   0.10
     WC   =   100.;   INIMIX=   1;  MIXPRE=   1;  MAXMIX= -45

 Intra band minimization:
   WEIMIN = 0.0000     energy-eigenvalue tresh-hold
   EBREAK =  0.78E-06  absolut break condition
   DEPER  =   0.30     relativ break condition  

   TIME   =   0.40     timestep for ELM

  volume/ion in A,a.u.               =      20.45       138.02
  Fermi-wavevector in a.u.,A,eV,Ry     =   0.950272  1.795754 12.286290  0.903017
  Thomas-Fermi vector in A             =   2.078633
 
 Write flags
   LWAVE  =      F    write WAVECAR
   LCHARG =      T    write CHGCAR
   LVTOT  =      F    write LOCPOT, total local potential
   LVHAR  =      T    write LOCPOT, Hartree potential only
   LELF   =      F    write electronic localiz. function (ELF)
   LORBIT =     11    0 simple, 1 ext, 2 COOP (PROOUT)


 Dipole corrections
   LMONO  =      F    monopole corrections only (constant potential shift)
   LDIPOL =      F    correct potential (dipole corrections)
   IDIPOL =      0    1-x, 2-y, 3-z, 4-all directions 
   EPSILON=  1.0000000 bulk dielectric constant

 Exchange correlation treatment:
   GGA     =    --    GGA type
   LEXCH   =     8    internal setting for exchange type
   VOSKOWN=      0    Vosko Wilk Nusair interpolation
   LHFCALC =     F    Hartree Fock is set to
   LHFONE  =     F    Hartree Fock one center treatment
   AEXX    =    0.0000 exact exchange contribution

 Linear response parameters
   LEPSILON=     F    determine dielectric tensor
   LRPA    =     F    only Hartree local field effects (RPA)
   LNABLA  =     F    use nabla operator in PAW spheres
   LVEL    =     F    velocity operator in full k-point grid
   LINTERFAST=   F  fast interpolation
   KINTER  =     0    interpolate to denser k-point grid
   CSHIFT  =0.1000    complex shift for real part using Kramers Kronig
   OMEGAMAX=  -1.0    maximum frequency
   DEG_THRESHOLD= 0.2000000E-02 threshold for treating states as degnerate
   RTIME   =    0.100 relaxation time in fs

 Orbital magnetization related:
   ORBITALMAG=     F  switch on orbital magnetization
   LCHIMAG   =     F  perturbation theory with respect to B field
   DQ        =  0.001000  dq finite difference perturbation B field



--------------------------------------------------------------------------------------------------------


 Static calculation
 charge density and potential will be updated during run
 spin polarized calculation
 Variant of blocked Davidson
 Davidson routine will perform the subspace rotation
 perform sub-space diagonalisation
    after iterative eigenvector-optimisation
 modified Broyden-mixing scheme, WC =      100.0
 initial mixing is a Kerker type mixing with AMIX =  0.4000 and BMIX =      1.0000
 Hartree-type preconditioning will be used
 using additional bands           28
 real space projection scheme for non local part
 use partial core corrections
 calculate Harris-corrections to forces 
   (improved forces if not selfconsistent)
 use gradient corrections 
 use of overlap-Matrix (Vanderbilt PP)
 Fermi weights with tetrahedron method with Bloechl corrections


--------------------------------------------------------------------------------------------------------


  energy-cutoff  :      520.00
  volume of cell :       40.90
      direct lattice vectors                 reciprocal lattice vectors
     3.867484000  0.000000000  0.000000000     0.258566034 -0.149283142 -0.105559013
     1.933742000  3.349340000  0.000000000     0.000000000  0.298566285  0.211118026
     0.000000000 -2.232891000  3.157788000     0.000000000  0.000000000  0.316677370

  length of vectors
     3.867484000  3.867484526  3.867483325     0.316677369  0.365667400  0.316677370


 
 k-points in units of 2pi/SCALE and weight: Automatic kpoint scheme                 
   0.00000000  0.00000000  0.00000000       0.002
   0.03232075 -0.01866039 -0.01319488       0.016
   0.06464151 -0.03732079 -0.02638975       0.016
   0.09696226 -0.05598118 -0.03958463       0.016
   0.12928302 -0.07464157 -0.05277951       0.008
   0.00000000  0.03732079  0.02638975       0.012
   0.06464151  0.00000000  0.00000000       0.023
   0.09696226 -0.01866039 -0.01319488       0.047
   0.12928302 -0.03732079 -0.02638975       0.047
  -0.09696226  0.09330196  0.06597438       0.047
  -0.06464151  0.07464157  0.05277951       0.047
  -0.03232075  0.05598118  0.03958463       0.047
   0.00000000  0.07464157  0.05277951       0.012
   0.12928302  0.00000000  0.00000000       0.023
  -0.09696226  0.13062275  0.09236414       0.047
  -0.06464151  0.11196236  0.07916926       0.047
  -0.03232075  0.09330196  0.06597438       0.047
   0.00000000  0.11196236  0.07916926       0.012
  -0.06464151  0.14928314  0.10555901       0.023
  -0.03232075  0.13062275  0.09236414       0.047
   0.00000000  0.14928314  0.10555901       0.006
   0.09696226 -0.01866039  0.02638979       0.047
   0.12928302 -0.03732079  0.01319492       0.094
  -0.09696226  0.09330196  0.10555905       0.047
  -0.09696226  0.13062275  0.13194881       0.047
  -0.06464151  0.11196236  0.11875393       0.094
  -0.03232075  0.09330196  0.10555905       0.047
  -0.03232075  0.13062275  0.13194881       0.023
  -0.06464151  0.11196236  0.15833860       0.012
 
 k-points in reciprocal lattice and weights: Automatic kpoint scheme                 
   0.00000000  0.00000000  0.00000000       0.002
   0.12500000  0.00000000 -0.00000000       0.016
   0.25000000  0.00000000 -0.00000000       0.016
   0.37500000  0.00000000 -0.00000000       0.016
   0.50000000  0.00000000 -0.00000000       0.008
   0.00000000  0.12500000  0.00000000       0.012
   0.25000000  0.12500000  0.00000000       0.023
   0.37500000  0.12500000 -0.00000000       0.047
   0.50000000  0.12500000  0.00000000       0.047
  -0.37500000  0.12500000  0.00000000       0.047
  -0.25000000  0.12500000  0.00000000       0.047
  -0.12500000  0.12500000  0.00000000       0.047
   0.00000000  0.25000000  0.00000000       0.012
   0.50000000  0.25000000  0.00000000       0.023
  -0.37500000  0.25000000  0.00000000       0.047
  -0.25000000  0.25000000  0.00000000       0.047
  -0.12500000  0.25000000 -0.00000000       0.047
   0.00000000  0.37500000  0.00000000       0.012
  -0.25000000  0.37500000  0.00000000       0.023
  -0.12500000  0.37500000  0.00000000       0.047
   0.00000000  0.50000000  0.00000000       0.006
   0.37500000  0.12500000  0.12500000       0.047
   0.50000000  0.12500000  0.12500000       0.094
  -0.37500000  0.12500000  0.12500000       0.047
  -0.37500000  0.25000000  0.12500000       0.047
  -0.25000000  0.25000000  0.12500000       0.094
  -0.12500000  0.25000000  0.12500000       0.047
  -0.12500000  0.37500000  0.12500000       0.023
  -0.25000000  0.25000000  0.25000000       0.012
 
 position of ions in fractional coordinates (direct lattice) 
   0.00000000  0.00000000  0.00000000
   0.75000000  0.50000000  0.75000000
 
 position of ions in cartesian coordinates  (Angst):
   0.00000000  0.00000000  0.00000000
   3.86748400  0.00000175  2.36834100
 


--------------------------------------------------------------------------------------------------------


 k-point  1 :   0.0000 0.0000 0.0000  plane waves:    1067
 k-point  2 :   0.1250 0.0000-0.0000  plane waves:    1100
 k-point  3 :   0.2500 0.0000-0.0000  plane waves:    1095
 k-point  4 :   0.3750 0.0000-0.0000  plane waves:    1101
 k-point  5 :   0.5000 0.0000-0.0000  plane waves:    1104
 k-point  6 :   0.0000 0.1250 0.0000  plane waves:    1102
 k-point  7 :   0.2500 0.1250 0.0000  plane waves:    1107
 k-point  8 :   0.3750 0.1250-0.0000  plane waves:    1102
 k-point  9 :   0.5000 0.1250 0.0000  plane waves:    1107
 k-point 10 :  -0.3750 0.1250 0.0000  plane waves:    1101
 k-point 11 :  -0.2500 0.1250 0.0000  plane waves:    1105
 k-point 12 :  -0.1250 0.1250 0.0000  plane waves:    1101
 k-point 13 :   0.0000 0.2500 0.0000  plane waves:    1094
 k-point 14 :   0.5000 0.2500 0.0000  plane waves:    1097
 k-point 15 :  -0.3750 0.2500 0.0000  plane waves:    1111
 k-point 16 :  -0.2500 0.2500 0.0000  plane waves:    1102
 k-point 17 :  -0.1250 0.2500-0.0000  plane waves:    1091
 k-point 18 :   0.0000 0.3750 0.0000  plane waves:    1094
 k-point 19 :  -0.2500 0.3750 0.0000  plane waves:    1121
 k-point 20 :  -0.1250 0.3750 0.0000  plane waves:    1106
 k-point 21 :   0.0000 0.5000 0.0000  plane waves:    1106
 k-point 22 :   0.3750 0.1250 0.1250  plane waves:    1096
 k-point 23 :   0.5000 0.1250 0.1250  plane waves:    1104
 k-point 24 :  -0.3750 0.1250 0.1250  plane waves:    1108
 k-point 25 :  -0.3750 0.2500 0.1250  plane waves:    1102
 k-point 26 :  -0.2500 0.2500 0.1250  plane waves:    1099
 k-point 27 :  -0.1250 0.2500 0.1250  plane waves:    1084
 k-point 28 :  -0.1250 0.3750 0.1250  plane waves:    1106
 k-point 29 :  -0.2500 0.2500 0.2500  plane waves:    1124

 maximum and minimum number of plane-waves per node :      1124     1067

 maximum number of plane-waves:      1124
 maximum index in each direction: 
   IXMAX=    7   IYMAX=    7   IZMAX=    7
   IXMIN=   -7   IYMIN=   -7   IZMIN=   -7

 NGX is ok and might be reduce to  30
 NGY is ok and might be reduce to  30
 NGZ is ok and might be reduce to  30

 serial   3D FFT for wavefunctions
 parallel 3D FFT for charge:
    minimum data exchange during FFTs selected (reduces bandwidth)


 total amount of memory used by VASP on root node    35027. kBytes
========================================================================

   base      :      30000. kBytes
   nonlr-proj:        832. kBytes
   fftplans  :        365. kBytes
   grid      :       2720. kBytes
   one-center:         12. kBytes
   wavefun   :       1098. kBytes
 
     INWAV:  cpu time    0.0000: real time    0.0001
 Broyden mixing: mesh for mixing (old mesh)
   NGX = 15   NGY = 15   NGZ = 15
  (NGX  = 60   NGY  = 60   NGZ  = 60)
  gives a total of   3375 points

 charge density for first step will be calculated from the start-wavefunctions


--------------------------------------------------------------------------------------------------------


 Maximum index for non-local projection operator         4753
 Maximum index for augmentation-charges          847 (set IRDMAX)


--------------------------------------------------------------------------------------------------------


 initial charge from wavefunction
 First call to EWALD:  gamma=   0.514
 Maximum number of real-space cells 3x 3x 3
 Maximum number of reciprocal cells 3x 3x 3

 FEWALD executed in parallel
    FEWALD:  cpu time    0.0020: real time    0.0025


----------------------------------------- Iteration    1(   1)  ---------------------------------------


    POTLOK:  cpu time    0.1370: real time    0.1384
    SETDIJ:  cpu time    0.0070: real time    0.0099
     EDDAV:  cpu time    2.9316: real time    2.9393
 BZINTS: Fermi energy:  4.958667;  8.000000 electrons
         Band energy:  -5.974867;  BLOECHL correction:  0.000000
       DOS:  cpu time    0.0100: real time    0.0136
    --------------------------------------------
      LOOP:  cpu time    3.0865: real time    3.1032

 eigenvalue-minimisations  :  3712
 total energy-change (2. order) :-0.1290432E+02  (-0.3474693E+03)
 number of electron       8.0000002 magnetization      -0.0000000
 augmentation part       -1.1218052 magnetization       0.0481454

 Free energy of the ion-electron system (eV)
  ---------------------------------------------------
  alpha Z        PSCENC =         3.29187312
  Ewald energy   TEWEN  =      -226.91498689
  -Hartree energ DENC   =        -6.83871152
  -exchange      EXHF   =         0.00000000
  -V(xc)+E(xc)   XCENC  =       -19.23240768
  PAW double counting   =        98.36461751      -61.73254128
  entropy T*S    EENTRO =         0.00000000
  eigenvalues    EBANDS =        -5.97486699
  atomic energy  EATOM  =       206.13270273
  Solvation  Ediel_sol  =         0.00000000
  ---------------------------------------------------
  free energy    TOTEN  =       -12.90432099 eV

  energy without entropy =      -12.90432099  energy(sigma->0) =      -12.90432099


--------------------------------------------------------------------------------------------------------




----------------------------------------- Iteration    1(   2)  ---------------------------------------


     EDDAV:  cpu time    4.3513: real time    4.3533
 BZINTS: Fermi energy:  3.053426;  8.000000 electrons
         Band energy: -12.173735;  BLOECHL correction:  0.000000
       DOS:  cpu time    0.0090: real time    0.0096
    --------------------------------------------
      LOOP:  cpu time    4.3633: real time    4.3659

 eigenvalue-minimisations  :  5568
 total energy-change (2. order) :-0.6198868E+01  (-0.6198868E+01)
 number of electron       8.0000002 magnetization      -0.0000000
 augmentation part       -1.1218052 magnetization       0.0481454

 Free energy of the ion-electron system (eV)
  ---------------------------------------------------
  alpha Z        PSCENC =         3.29187312
  Ewald energy   TEWEN  =      -226.91498689
  -Hartree energ DENC   =        -6.83871152
  -exchange      EXHF   =         0.00000000
  -V(xc)+E(xc)   XCENC  =       -19.23240768
  PAW double counting   =        98.36461751      -61.73254128
  entropy T*S    EENTRO =         0.00000000
  eigenvalues    EBANDS =       -12.17373466
  atomic energy  EATOM  =       206.13270273
  Solvation  Ediel_sol  =         0.00000000
  ---------------------------------------------------
  free energy    TOTEN  =       -19.10318866 eV

  energy without entropy =      -19.10318866  energy(sigma->0) =      -19.10318866


--------------------------------------------------------------------------------------------------------




----------------------------------------- Iteration    1(   3)  ---------------------------------------


     EDDAV:  cpu time    2.9606: real time    2.9598
 BZINTS: Fermi energy:  3.001732;  8.000000 electrons
         Band energy: -12.186008;  BLOECHL correction:  0.000000
       DOS:  cpu time    0.0080: real time    0.0086
    --------------------------------------------
      LOOP:  cpu time    2.9695: real time    2.9693

 eigenvalue-minimisations  :  3744
 total energy-change (2. order) :-0.1227377E-01  (-0.1227377E-01)
 number of electron       8.0000002 magnetization      -0.0000000
 augmentation part       -1.1218052 magnetization       0.0481454

 Free energy of the ion-electron system (eV)
  ---------------------------------------------------
  alpha Z        PSCENC =         3.29187312
  Ewald energy   TEWEN  =      -226.91498689
  -Hartree energ DENC   =        -6.83871152
  -exchange      EXHF   =         0.00000000
  -V(xc)+E(xc)   XCENC  =       -19.23240768
  PAW double counting   =        98.36461751      -61.73254128
  entropy T*S    EENTRO =         0.00000000
  eigenvalues    EBANDS =       -12.18600843
  atomic energy  EATOM  =       206.13270273
  Solvation  Ediel_sol  =         0.00000000
  ---------------------------------------------------
  free energy    TOTEN  =       -19.11546243 eV

  energy without entropy =      -19.11546243  energy(sigma->0) =      -19.11546243


--------------------------------------------------------------------------------------------------------




----------------------------------------- Iteration    1(   4)  ---------------------------------------


     EDDAV:  cpu time    6.0841: real time    6.0849
 BZINTS: Fermi energy:  2.989918;  8.000000 electrons
         Band energy: -12.186022;  BLOECHL correction:  0.000000
       DOS:  cpu time    0.0080: real time    0.0086
    --------------------------------------------
      LOOP:  cpu time    6.0931: real time    6.0948

 eigenvalue-minimisations  :  7264
 total energy-change (2. order) :-0.1345057E-04  (-0.1345057E-04)
 number of electron       8.0000002 magnetization      -0.0000000
 augmentation part       -1.1218052 magnetization       0.0481454

 Free energy of the ion-electron system (eV)
  ---------------------------------------------------
  alpha Z        PSCENC =         3.29187312
  Ewald energy   TEWEN  =      -226.91498689
  -Hartree energ DENC   =        -6.83871152
  -exchange      EXHF   =         0.00000000
  -V(xc)+E(xc)   XCENC  =       -19.23240768
  PAW double counting   =        98.36461751      -61.73254128
  entropy T*S    EENTRO =         0.00000000
  eigenvalues    EBANDS =       -12.18602188
  atomic energy  EATOM  =       206.13270273
  Solvation  Ediel_sol  =         0.00000000
  ---------------------------------------------------
  free energy    TOTEN  =       -19.11547588 eV

  energy without entropy =      -19.11547588  energy(sigma->0) =      -19.11547588


--------------------------------------------------------------------------------------------------------




----------------------------------------- Iteration    1(   5)  ---------------------------------------


     EDDAV:  cpu time    2.9835: real time    2.9847
 BZINTS: Fermi energy:  2.989804;  8.000000 electrons
         Band energy: -12.186022;  BLOECHL correction:  0.000000
       DOS:  cpu time    0.0090: real time    0.0085
    CHARGE:  cpu time    0.0570: real time    0.0576
    MIXING:  cpu time    0.0050: real time    0.0077
    --------------------------------------------
      LOOP:  cpu time    3.0565: real time    3.0596

 eigenvalue-minimisations  :  3776
 total energy-change (2. order) :-0.5036327E-10  (-0.5020832E-10)
 number of electron       8.0000001 magnetization       0.0000000
 augmentation part       -0.4902793 magnetization       0.0005059

 Broyden mixing:
  rms(total) = 0.21760E+01    rms(broyden)= 0.21675E+01
  rms(prec ) = 0.46199E+01
  weight for this iteration     100.00

 Free energy of the ion-electron system (eV)
  ---------------------------------------------------
  alpha Z        PSCENC =         3.29187312
  Ewald energy   TEWEN  =      -226.91498689
  -Hartree energ DENC   =        -6.83871152
  -exchange      EXHF   =         0.00000000
  -V(xc)+E(xc)   XCENC  =       -19.23240768
  PAW double counting   =        98.36461751      -61.73254128
  entropy T*S    EENTRO =         0.00000000
  eigenvalues    EBANDS =       -12.18602188
  atomic energy  EATOM  =       206.13270273
  Solvation  Ediel_sol  =         0.00000000
  ---------------------------------------------------
  free energy    TOTEN  =       -19.11547588 eV

  energy without entropy =      -19.11547588  energy(sigma->0) =      -19.11547588


--------------------------------------------------------------------------------------------------------




----------------------------------------- Iteration    1(   6)  ---------------------------------------


    POTLOK:  cpu time    0.1320: real time    0.1322
    SETDIJ:  cpu time    0.0050: real time    0.0056
     EDDAV:  cpu time    4.1594: real time    4.1588
 BZINTS: Fermi energy:  4.054353;  8.000000 electrons
         Band energy:  -5.328978;  BLOECHL correction:  0.000000
       DOS:  cpu time    0.0090: real time    0.0098
    CHARGE:  cpu time    0.0590: real time    0.0580
    MIXING:  cpu time    0.0030: real time    0.0046
    --------------------------------------------
      LOOP:  cpu time    4.3683: real time    4.3698

 eigenvalue-minimisations  :  5184
 total energy-change (2. order) : 0.5719978E+01  (-0.1782333E+00)
 number of electron       8.0000001 magnetization      -0.0000000
 augmentation part       -0.4760167 magnetization       0.0001604

 Broyden mixing:
  rms(total) = 0.12958E+01    rms(broyden)= 0.12952E+01
  rms(prec ) = 0.27612E+01
  weight for this iteration     100.00

 eigenvalues of (default mixing * dielectric matrix)
  average eigenvalue GAMMA=   2.1254
  2.1254

 Free energy of the ion-electron system (eV)
  ---------------------------------------------------
  alpha Z        PSCENC =         3.29187312
  Ewald energy   TEWEN  =      -226.91498689
  -Hartree energ DENC   =        -6.76621663
  -exchange      EXHF   =         0.00000000
  -V(xc)+E(xc)   XCENC  =       -19.57745204
  PAW double counting   =        93.30405629      -57.53649637
  entropy T*S    EENTRO =         0.00000000
  eigenvalues    EBANDS =        -5.32897788
  atomic energy  EATOM  =       206.13270273
  Solvation  Ediel_sol  =         0.00000000
  ---------------------------------------------------
  free energy    TOTEN  =       -13.39549766 eV

  energy without entropy =      -13.39549766  energy(sigma->0) =      -13.39549766


--------------------------------------------------------------------------------------------------------




----------------------------------------- Iteration    1(   7)  ---------------------------------------


    POTLOK:  cpu time    0.1310: real time    0.1312
    SETDIJ:  cpu time    0.0050: real time    0.0056
     EDDAV:  cpu time    4.3233: real time    4.3236
 BZINTS: Fermi energy:  5.837266;  8.000000 electrons
         Band energy:   5.367067;  BLOECHL correction:  0.000000
       DOS:  cpu time    0.0110: real time    0.0111
    CHARGE:  cpu time    0.0560: real time    0.0585
    MIXING:  cpu time    0.0020: real time    0.0021
    --------------------------------------------
      LOOP:  cpu time    4.5293: real time    4.5330

 eigenvalue-minimisations  :  5344
 total energy-change (2. order) : 0.2659253E+01  (-0.4272900E+00)
 number of electron       8.0000001 magnetization      -0.0000000
 augmentation part       -0.4541749 magnetization      -0.0014088

 Broyden mixing:
  rms(total) = 0.22903E+00    rms(broyden)= 0.22890E+00
  rms(prec ) = 0.30649E+00
  weight for this iteration     100.00

 eigenvalues of (default mixing * dielectric matrix)
  average eigenvalue GAMMA=   1.5585
  0.6447  2.4724

 Free energy of the ion-electron system (eV)
  ---------------------------------------------------
  alpha Z        PSCENC =         3.29187312
  Ewald energy   TEWEN  =      -226.91498689
  -Hartree energ DENC   =       -15.39284560
  -exchange      EXHF   =         0.00000000
  -V(xc)+E(xc)   XCENC  =       -18.07264443
  PAW double counting   =        82.29650363      -47.44391391
  entropy T*S    EENTRO =         0.00000000
  eigenvalues    EBANDS =         5.36706684
  atomic energy  EATOM  =       206.13270273
  Solvation  Ediel_sol  =         0.00000000
  ---------------------------------------------------
  free energy    TOTEN  =       -10.73624450 eV

  energy without entropy =      -10.73624450  energy(sigma->0) =      -10.73624450


--------------------------------------------------------------------------------------------------------




----------------------------------------- Iteration    1(   8)  ---------------------------------------


    POTLOK:  cpu time    0.1690: real time    0.1736
    SETDIJ:  cpu time    0.0160: real time    0.0171
     EDDAV:  cpu time    3.0455: real time    3.0543
 BZINTS: Fermi energy:  5.819930;  8.000000 electrons
         Band energy:   5.144453;  BLOECHL correction:  0.000000
       DOS:  cpu time    0.0110: real time    0.0108
    CHARGE:  cpu time    0.0560: real time    0.0564
    MIXING:  cpu time    0.0030: real time    0.0026
    --------------------------------------------
      LOOP:  cpu time    3.3005: real time    3.3159

 eigenvalue-minimisations  :  3808
 total energy-change (2. order) :-0.9249313E-01  (-0.4424242E-02)
 number of electron       8.0000001 magnetization       0.0000000
 augmentation part       -0.4550585 magnetization       0.0001922

 Broyden mixing:
  rms(total) = 0.69340E-01    rms(broyden)= 0.69323E-01
  rms(prec ) = 0.16561E+00
  weight for this iteration     100.00

 eigenvalues of (default mixing * dielectric matrix)
  average eigenvalue GAMMA=   1.5995
  2.4665  1.6905  0.6415

 Free energy of the ion-electron system (eV)
  ---------------------------------------------------
  alpha Z        PSCENC =         3.29187312
  Ewald energy   TEWEN  =      -226.91498689
  -Hartree energ DENC   =       -15.25938594
  -exchange      EXHF   =         0.00000000
  -V(xc)+E(xc)   XCENC  =       -18.11941246
  PAW double counting   =        77.49837800      -42.60235908
  entropy T*S    EENTRO =         0.00000000
  eigenvalues    EBANDS =         5.14445288
  atomic energy  EATOM  =       206.13270273
  Solvation  Ediel_sol  =         0.00000000
  ---------------------------------------------------
  free energy    TOTEN  =       -10.82873763 eV

  energy without entropy =      -10.82873763  energy(sigma->0) =      -10.82873763


--------------------------------------------------------------------------------------------------------




----------------------------------------- Iteration    1(   9)  ---------------------------------------


    POTLOK:  cpu time    0.1300: real time    0.1301
    SETDIJ:  cpu time    0.0060: real time    0.0056
     EDDAV:  cpu time    3.5845: real time    3.5843
 BZINTS: Fermi energy:  5.607057;  8.000000 electrons
         Band energy:   4.569643;  BLOECHL correction:  0.000000
       DOS:  cpu time    0.0100: real time    0.0099
    CHARGE:  cpu time    0.0570: real time    0.0568
    MIXING:  cpu time    0.0020: real time    0.0021
    --------------------------------------------
      LOOP:  cpu time    3.7894: real time    3.7901

 eigenvalue-minimisations  :  4512
 total energy-change (2. order) :-0.1463161E-01  (-0.6839468E-02)
 number of electron       8.0000001 magnetization       0.0000000
 augmentation part       -0.4595455 magnetization      -0.0002488

 Broyden mixing:
  rms(total) = 0.23649E-01    rms(broyden)= 0.23647E-01
  rms(prec ) = 0.60199E-01
  weight for this iteration     100.00

 eigenvalues of (default mixing * dielectric matrix)
  average eigenvalue GAMMA=   1.6361
  2.7278  2.4394  0.7404  0.6371

 Free energy of the ion-electron system (eV)
  ---------------------------------------------------
  alpha Z        PSCENC =         3.29187312
  Ewald energy   TEWEN  =      -226.91498689
  -Hartree energ DENC   =       -14.83323566
  -exchange      EXHF   =         0.00000000
  -V(xc)+E(xc)   XCENC  =       -18.10266739
  PAW double counting   =        72.88623250      -37.87293061
  entropy T*S    EENTRO =         0.00000000
  eigenvalues    EBANDS =         4.56964294
  atomic energy  EATOM  =       206.13270273
  Solvation  Ediel_sol  =         0.00000000
  ---------------------------------------------------
  free energy    TOTEN  =       -10.84336924 eV

  energy without entropy =      -10.84336924  energy(sigma->0) =      -10.84336924


--------------------------------------------------------------------------------------------------------




----------------------------------------- Iteration    1(  10)  ---------------------------------------


    POTLOK:  cpu time    0.1310: real time    0.1305
    SETDIJ:  cpu time    0.0060: real time    0.0057
     EDDAV:  cpu time    3.2215: real time    3.2235
 BZINTS: Fermi energy:  5.626594;  8.000000 electrons
         Band energy:   4.777849;  BLOECHL correction:  0.000000
       DOS:  cpu time    0.0100: real time    0.0096
    CHARGE:  cpu time    0.0560: real time    0.0564
    MIXING:  cpu time    0.0020: real time    0.0020
    --------------------------------------------
      LOOP:  cpu time    3.4265: real time    3.4284

 eigenvalue-minimisations  :  4064
 total energy-change (2. order) :-0.3353672E-02  (-0.8161941E-03)
 number of electron       8.0000001 magnetization       0.0000000
 augmentation part       -0.4588413 magnetization      -0.0000576

 Broyden mixing:
  rms(total) = 0.63510E-02    rms(broyden)= 0.63507E-02
  rms(prec ) = 0.21868E-01
  weight for this iteration     100.00

 eigenvalues of (default mixing * dielectric matrix)
  average eigenvalue GAMMA=   1.4383
  2.7042  2.4067  0.7217  0.7217  0.6370

 Free energy of the ion-electron system (eV)
  ---------------------------------------------------
  alpha Z        PSCENC =         3.29187312
  Ewald energy   TEWEN  =      -226.91498689
  -Hartree energ DENC   =       -15.05855234
  -exchange      EXHF   =         0.00000000
  -V(xc)+E(xc)   XCENC  =       -18.06860481
  PAW double counting   =        73.17416155      -38.18116562
  entropy T*S    EENTRO =         0.00000000
  eigenvalues    EBANDS =         4.77784933
  atomic energy  EATOM  =       206.13270273
  Solvation  Ediel_sol  =         0.00000000
  ---------------------------------------------------
  free energy    TOTEN  =       -10.84672291 eV

  energy without entropy =      -10.84672291  energy(sigma->0) =      -10.84672291


--------------------------------------------------------------------------------------------------------




----------------------------------------- Iteration    1(  11)  ---------------------------------------


    POTLOK:  cpu time    0.1290: real time    0.1298
    SETDIJ:  cpu time    0.0050: real time    0.0056
     EDDAV:  cpu time    4.3183: real time    4.3238
 BZINTS: Fermi energy:  5.633515;  8.000000 electrons
         Band energy:   4.841637;  BLOECHL correction:  0.000000
       DOS:  cpu time    0.0090: real time    0.0097
    --------------------------------------------
      LOOP:  cpu time    4.4623: real time    4.4698

 eigenvalue-minimisations  :  5312
 total energy-change (2. order) : 0.8520785E-04  (-0.2488479E-04)
 number of electron       8.0000001 magnetization       0.0000000
 augmentation part       -0.4588413 magnetization      -0.0000576

 Free energy of the ion-electron system (eV)
  ---------------------------------------------------
  alpha Z        PSCENC =         3.29187312
  Ewald energy   TEWEN  =      -226.91498689
  -Hartree energ DENC   =       -15.12149060
  -exchange      EXHF   =         0.00000000
  -V(xc)+E(xc)   XCENC  =       -18.06282671
  PAW double counting   =        73.36396553      -38.37751226
  entropy T*S    EENTRO =         0.00000000
  eigenvalues    EBANDS =         4.84163736
  atomic energy  EATOM  =       206.13270273
  Solvation  Ediel_sol  =         0.00000000
  ---------------------------------------------------
  free energy    TOTEN  =       -10.84663771 eV

  energy without entropy =      -10.84663771  energy(sigma->0) =      -10.84663771


--------------------------------------------------------------------------------------------------------




 average (electrostatic) potential at core
  the test charge radii are     0.9892
  (the norm of the test charge is              1.0000)
       1 -83.5143       2 -83.5143
 
 
 
 E-fermi :   5.6335     XC(G=0):  -9.3343     alpha+bet :-11.7271


 spin component 1

 k-point     1 :       0.0000    0.0000    0.0000
  band No.  band energies     occupation 
      1      -6.2075      1.00000
      2       5.6029      1.00000
      3       5.6029      1.00000
      4       5.6029      1.00000
      5       8.1643      0.00000
      6       8.1643      0.00000
      7       8.1643      0.00000
      8       8.7302      0.00000
      9      13.3174      0.00000
     10      13.3174      0.00000
     11      13.4760      0.00000
     12      16.7894      0.00000
     13      16.7895      0.00000
     14      16.7895      0.00000
     15      20.8705      0.00000
     16      28.4532      0.00000
     17      28.4532      0.00000
     18      28.4532      0.00000
     19      29.5352      0.00000
     20      29.5353      0.00000
     21      30.9752      0.00000
     22      30.9752      0.00000
     23      30.9752      0.00000
     24      34.5148      0.00000
     25      34.5148      0.00000
     26      34.5149      0.00000
     27      40.0898      0.00000
     28      40.0899      0.00000
     29      40.0899      0.00000
     30      43.3885      0.00000
     31      43.8669      0.00000
     32      43.8669      0.00000

 k-point     2 :       0.1250    0.0000   -0.0000
  band No.  band energies     occupation 
      1      -6.0072      1.00000
      2       4.0130      1.00000
      3       5.3211      1.00000
      4       5.3211      1.00000
      5       8.0471      0.00000
      6       8.5791      0.00000
      7       8.5792      0.00000
      8      10.1312      0.00000
      9      12.8448      0.00000
     10      12.8448      0.00000
     11      14.2522      0.00000
     12      16.2342      0.00000
     13      17.9341      0.00000
     14      17.9341      0.00000
     15      22.0859      0.00000
     16      26.4466      0.00000
     17      26.4466      0.00000
     18      26.7238      0.00000
     19      29.1946      0.00000
     20      29.1946      0.00000
     21      31.5159      0.00000
     22      31.5160      0.00000
     23      32.4155      0.00000
     24      34.6967      0.00000
     25      36.6568      0.00000
     26      36.6568      0.00000
     27      37.7325      0.00000
     28      39.5672      0.00000
     29      39.5673      0.00000
     30      41.9840      0.00000
     31      41.9840      0.00000
     32      43.8177      0.00000

 k-point     3 :       0.2500    0.0000   -0.0000
  band No.  band energies     occupation 
      1      -5.4230      1.00000
      2       1.7187      1.00000
      3       4.8590      1.00000
      4       4.8590      1.00000
      5       7.5623      0.00000
      6       9.0970      0.00000
      7       9.0970      0.00000
      8      12.3498      0.00000
      9      12.7952      0.00000
     10      12.7952      0.00000
     11      14.5323      0.00000
     12      17.3118      0.00000
     13      20.1197      0.00000
     14      20.1197      0.00000
     15      23.2817      0.00000
     16      23.2817      0.00000
     17      23.3628      0.00000
     18      25.4694      0.00000
     19      29.3693      0.00000
     20      29.3694      0.00000
     21      31.8700      0.00000
     22      31.8701      0.00000
     23      33.1259      0.00000
     24      34.6890      0.00000
     25      35.2068      0.00000
     26      37.1002      0.00000
     27      37.1002      0.00000
     28      38.7335      0.00000
     29      38.7335      0.00000
     30      39.6357      0.00000
     31      39.6357      0.00000
     32      43.3809      0.00000

 k-point     4 :       0.3750    0.0000   -0.0000
  band No.  band energies     occupation 
      1      -4.5491      1.00000
      2      -0.2646      1.00000
      3       4.5365      1.00000
      4       4.5365      1.00000
      5       7.1973      0.00000
      6       9.0609      0.00000
      7       9.0609      0.00000
      8      13.4413      0.00000
      9      14.1458      0.00000
     10      14.1459      0.00000
     11      15.1098      0.00000
     12      19.2250      0.00000
     13      19.2250      0.00000
     14      19.4582      0.00000
     15      22.0615      0.00000
     16      23.9763      0.00000
     17      23.9764      0.00000
     18      28.3590      0.00000
     19      29.1928      0.00000
     20      29.2042      0.00000
     21      29.2042      0.00000
     22      32.0562      0.00000
     23      32.0562      0.00000
     24      33.6341      0.00000
     25      33.6342      0.00000
     26      35.1046      0.00000
     27      35.8830      0.00000
     28      37.8268      0.00000
     29      37.8268      0.00000
     30      38.7710      0.00000
     31      38.7710      0.00000
     32      39.9211      0.00000

 k-point     5 :       0.5000    0.0000   -0.0000
  band No.  band energies     occupation 
      1      -3.9305      1.00000
      2      -1.2618      1.00000
      3       4.4259      1.00000
      4       4.4260      1.00000
      5       7.0690      0.00000
      6       8.9576      0.00000
      7       8.9577      0.00000
      8      13.3064      0.00000
      9      16.1017      0.00000
     10      16.1017      0.00000
     11      16.7779      0.00000
     12      16.8235      0.00000
     13      16.8235      0.00000
     14      18.3364      0.00000
     15      24.7362      0.00000
     16      25.3500      0.00000
     17      27.0490      0.00000
     18      27.0490      0.00000
     19      27.1699      0.00000
     20      27.1699      0.00000
     21      31.0304      0.00000
     22      31.7549      0.00000
     23      31.7549      0.00000
     24      32.6678      0.00000
     25      32.6678      0.00000
     26      33.6537      0.00000
     27      36.2564      0.00000
     28      37.6143      0.00000
     29      37.6143      0.00000
     30      38.1277      0.00000
     31      38.1277      0.00000
     32      39.0509      0.00000

 k-point     6 :       0.0000    0.1250    0.0000
  band No.  band energies     occupation 
      1      -5.9396      1.00000
      2       4.2502      1.00000
      3       4.8180      1.00000
      4       4.8180      1.00000
      5       7.6226      0.00000
      6       9.2774      0.00000
      7       9.2774      0.00000
      8       9.8189      0.00000
      9      12.0914      0.00000
     10      13.6156      0.00000
     11      14.5464      0.00000
     12      17.2559      0.00000
     13      17.2559      0.00000
     14      17.7313      0.00000
     15      22.6634      0.00000
     16      25.9639      0.00000
     17      25.9639      0.00000
     18      27.2008      0.00000
     19      27.9675      0.00000
     20      28.8133      0.00000
     21      31.7593      0.00000
     22      32.1062      0.00000
     23      32.1062      0.00000
     24      36.4564      0.00000
     25      36.4565      0.00000
     26      36.9636      0.00000
     27      38.3505      0.00000
     28      38.3505      0.00000
     29      38.4627      0.00000
     30      40.6155      0.00000
     31      42.3084      0.00000
     32      43.2775      0.00000

 k-point     7 :       0.2500    0.1250    0.0000
  band No.  band energies     occupation 
      1      -5.6772      1.00000
      2       2.9292      1.00000
      3       4.0165      1.00000
      4       5.3135      1.00000
      5       8.5729      0.00000
      6       8.7164      0.00000
      7       8.9349      0.00000
      8      11.0319      0.00000
      9      11.9647      0.00000
     10      13.5712      0.00000
     11      15.2551      0.00000
     12      16.7190      0.00000
     13      17.8851      0.00000
     14      19.9644      0.00000
     15      23.1193      0.00000
     16      23.5639      0.00000
     17      26.3136      0.00000
     18      26.5547      0.00000
     19      27.0562      0.00000
     20      28.3883      0.00000
     21      31.7660      0.00000
     22      31.9902      0.00000
     23      33.9986      0.00000
     24      35.7090      0.00000
     25      35.9842      0.00000
     26      37.2794      0.00000
     27      37.4924      0.00000
     28      38.9905      0.00000
     29      39.0970      0.00000
     30      39.6254      0.00000
     31      41.1615      0.00000
     32      41.1628      0.00000

 k-point     8 :       0.3750    0.1250   -0.0000
  band No.  band energies     occupation 
      1      -4.9815      1.00000
      2       1.0235      1.00000
      3       3.3392      1.00000
      4       4.8426      1.00000
      5       8.2596      0.00000
      6       9.2688      0.00000
      7       9.4406      0.00000
      8      11.8143      0.00000
      9      12.0841      0.00000
     10      15.3466      0.00000
     11      15.5622      0.00000
     12      17.9036      0.00000
     13      19.4562      0.00000
     14      20.9005      0.00000
     15      21.8307      0.00000
     16      23.4060      0.00000
     17      24.2563      0.00000
     18      27.1425      0.00000
     19      27.3415      0.00000
     20      28.2433      0.00000
     21      31.3415      0.00000
     22      31.8110      0.00000
     23      32.6299      0.00000
     24      34.7646      0.00000
     25      34.9308      0.00000
     26      36.1914      0.00000
     27      36.3716      0.00000
     28      37.4378      0.00000
     29      38.4060      0.00000
     30      39.4675      0.00000
     31      39.7750      0.00000
     32      42.2779      0.00000

 k-point     9 :       0.5000    0.1250    0.0000
  band No.  band energies     occupation 
      1      -4.0805      1.00000
      2      -0.6907      1.00000
      3       3.1847      1.00000
      4       4.3620      1.00000
      5       7.9167      0.00000
      6       9.2134      0.00000
      7       9.4717      0.00000
      8      13.4305      0.00000
      9      13.6653      0.00000
     10      14.7378      0.00000
     11      16.6806      0.00000
     12      17.8828      0.00000
     13      19.7305      0.00000
     14      20.0820      0.00000
     15      22.2946      0.00000
     16      24.0605      0.00000
     17      25.8986      0.00000
     18      27.5053      0.00000
     19      27.7673      0.00000
     20      27.8949      0.00000
     21      30.0549      0.00000
     22      30.4765      0.00000
     23      32.6960      0.00000
     24      32.7773      0.00000
     25      33.1494      0.00000
     26      34.4611      0.00000
     27      35.5633      0.00000
     28      36.5668      0.00000
     29      38.4910      0.00000
     30      38.7872      0.00000
     31      38.8522      0.00000
     32      40.1645      0.00000

 k-point    10 :      -0.3750    0.1250    0.0000
  band No.  band energies     occupation 
      1      -3.8434      1.00000
      2      -1.0516      1.00000
      3       3.3596      1.00000
      4       4.0732      1.00000
      5       7.7678      0.00000
      6       9.0942      0.00000
      7       9.7009      0.00000
      8      12.9089      0.00000
      9      14.5473      0.00000
     10      16.0226      0.00000
     11      17.0023      0.00000
     12      17.1426      0.00000
     13      17.9234      0.00000
     14      20.4318      0.00000
     15      23.7035      0.00000
     16      25.0685      0.00000
     17      25.6922      0.00000
     18      26.4538      0.00000
     19      27.2953      0.00000
     20      27.6674      0.00000
     21      30.0241      0.00000
     22      31.3230      0.00000
     23      31.7138      0.00000
     24      32.8120      0.00000
     25      33.3732      0.00000
     26      34.9487      0.00000
     27      35.2350      0.00000
     28      35.6156      0.00000
     29      38.0381      0.00000
     30      38.3720      0.00000
     31      39.0295      0.00000
     32      40.1247      0.00000

 k-point    11 :      -0.2500    0.1250    0.0000
  band No.  band energies     occupation 
      1      -4.6817      1.00000
      2       0.3777      1.00000
      3       3.7963      1.00000
      4       4.0514      1.00000
      5       7.8332      0.00000
      6       9.1977      0.00000
      7      10.0481      0.00000
      8      11.0450      0.00000
      9      14.8762      0.00000
     10      14.8850      0.00000
     11      15.3897      0.00000
     12      18.8753      0.00000
     13      18.8813      0.00000
     14      20.6422      0.00000
     15      22.1426      0.00000
     16      23.0458      0.00000
     17      24.0121      0.00000
     18      27.2386      0.00000
     19      27.9542      0.00000
     20      28.9286      0.00000
     21      30.0893      0.00000
     22      30.8463      0.00000
     23      32.7521      0.00000
     24      34.3443      0.00000
     25      35.4071      0.00000
     26      35.5845      0.00000
     27      35.7537      0.00000
     28      36.9421      0.00000
     29      37.9665      0.00000
     30      38.4685      0.00000
     31      40.0617      0.00000
     32      41.4454      0.00000

 k-point    12 :      -0.1250    0.1250    0.0000
  band No.  band energies     occupation 
      1      -5.4798      1.00000
      2       2.3982      1.00000
      3       4.3162      1.00000
      4       4.3792      1.00000
      5       7.7511      0.00000
      6       9.2287      0.00000
      7      10.0328      0.00000
      8      10.3448      0.00000
      9      12.9619      0.00000
     10      13.7764      0.00000
     11      15.5364      0.00000
     12      17.0999      0.00000
     13      18.6478      0.00000
     14      19.8940      0.00000
     15      23.0148      0.00000
     16      23.4743      0.00000
     17      24.6741      0.00000
     18      26.9100      0.00000
     19      26.9321      0.00000
     20      28.3749      0.00000
     21      31.5186      0.00000
     22      32.4902      0.00000
     23      33.5110      0.00000
     24      35.0924      0.00000
     25      36.6860      0.00000
     26      36.9969      0.00000
     27      37.3453      0.00000
     28      38.1846      0.00000
     29      38.7270      0.00000
     30      39.4299      0.00000
     31      40.9824      0.00000
     32      41.0117      0.00000

 k-point    13 :       0.0000    0.2500    0.0000
  band No.  band energies     occupation 
      1      -5.1455      1.00000
      2       2.0845      1.00000
      3       3.7570      1.00000
      4       3.7570      1.00000
      5       6.7583      0.00000
      6       8.7425      0.00000
      7      11.2938      0.00000
      8      11.2938      0.00000
      9      13.4674      0.00000
     10      14.5084      0.00000
     11      16.8994      0.00000
     12      18.5245      0.00000
     13      18.5245      0.00000
     14      19.2308      0.00000
     15      22.8196      0.00000
     16      22.8196      0.00000
     17      23.7757      0.00000
     18      25.6598      0.00000
     19      26.3298      0.00000
     20      30.2602      0.00000
     21      31.5783      0.00000
     22      32.5595      0.00000
     23      32.5595      0.00000
     24      34.7602      0.00000
     25      34.7602      0.00000
     26      34.9292      0.00000
     27      35.5982      0.00000
     28      39.9001      0.00000
     29      40.3592      0.00000
     30      40.5752      0.00000
     31      40.5752      0.00000
     32      42.2495      0.00000

 k-point    14 :       0.5000    0.2500    0.0000
  band No.  band energies     occupation 
      1      -4.2046      1.00000
      2       0.1651      1.00000
      3       1.9381      1.00000
      4       4.3025      1.00000
      5       8.0440      0.00000
      6      10.3553      0.00000
      7      10.6857      0.00000
      8      11.6442      0.00000
      9      12.0616      0.00000
     10      15.1248      0.00000
     11      18.0959      0.00000
     12      18.6318      0.00000
     13      18.9470      0.00000
     14      22.1074      0.00000
     15      22.4871      0.00000
     16      22.8005      0.00000
     17      24.0697      0.00000
     18      26.5577      0.00000
     19      27.1009      0.00000
     20      29.2726      0.00000
     21      30.1565      0.00000
     22      30.5956      0.00000
     23      32.0743      0.00000
     24      32.4063      0.00000
     25      33.0351      0.00000
     26      34.5629      0.00000
     27      35.5948      0.00000
     28      36.4554      0.00000
     29      39.2985      0.00000
     30      39.5117      0.00000
     31      41.2605      0.00000
     32      42.1738      0.00000

 k-point    15 :      -0.3750    0.2500    0.0000
  band No.  band energies     occupation 
      1      -3.3482      1.00000
      2      -0.9681      1.00000
      3       1.6972      1.00000
      4       3.7569      1.00000
      5       7.4626      0.00000
      6      11.0040      0.00000
      7      11.0492      0.00000
      8      12.4877      0.00000
      9      13.4949      0.00000
     10      13.5542      0.00000
     11      18.0819      0.00000
     12      20.2854      0.00000
     13      20.4911      0.00000
     14      21.4256      0.00000
     15      21.8809      0.00000
     16      23.7824      0.00000
     17      24.7981      0.00000
     18      25.3372      0.00000
     19      27.1773      0.00000
     20      27.4865      0.00000
     21      30.0665      0.00000
     22      30.6732      0.00000
     23      31.1380      0.00000
     24      31.6753      0.00000
     25      33.2003      0.00000
     26      33.9467      0.00000
     27      34.5520      0.00000
     28      35.3585      0.00000
     29      38.6899      0.00000
     30      39.3463      0.00000
     31      40.9747      0.00000
     32      41.1962      0.00000

 k-point    16 :      -0.2500    0.2500    0.0000
  band No.  band energies     occupation 
      1      -3.5451      1.00000
      2      -0.7185      1.00000
      3       2.1442      1.00000
      4       3.4461      1.00000
      5       7.1487      0.00000
      6      10.0373      0.00000
      7      11.2489      0.00000
      8      11.4830      0.00000
      9      15.6882      0.00000
     10      16.0659      0.00000
     11      17.6539      0.00000
     12      18.1206      0.00000
     13      18.4765      0.00000
     14      22.2534      0.00000
     15      23.1604      0.00000
     16      23.9651      0.00000
     17      24.7690      0.00000
     18      24.9833      0.00000
     19      25.3176      0.00000
     20      28.2565      0.00000
     21      29.0688      0.00000
     22      30.5183      0.00000
     23      30.8960      0.00000
     24      33.1090      0.00000
     25      34.3570      0.00000
     26      34.5932      0.00000
     27      34.6402      0.00000
     28      36.4028      0.00000
     29      37.3519      0.00000
     30      39.5315      0.00000
     31      40.6668      0.00000
     32      41.3251      0.00000

 k-point    17 :      -0.1250    0.2500   -0.0000
  band No.  band energies     occupation 
      1      -4.4494      1.00000
      2       0.6886      1.00000
      3       2.9917      1.00000
      4       3.4442      1.00000
      5       6.9776      0.00000
      6       8.5098      0.00000
      7      11.5117      0.00000
      8      11.8118      0.00000
      9      15.5304      0.00000
     10      15.5693      0.00000
     11      17.1490      0.00000
     12      18.6911      0.00000
     13      19.2335      0.00000
     14      20.2765      0.00000
     15      21.3640      0.00000
     16      22.5543      0.00000
     17      23.8148      0.00000
     18      25.2028      0.00000
     19      27.2255      0.00000
     20      29.5095      0.00000
     21      30.5011      0.00000
     22      31.6278      0.00000
     23      31.7520      0.00000
     24      32.7071      0.00000
     25      34.1600      0.00000
     26      34.5083      0.00000
     27      35.7170      0.00000
     28      38.4912      0.00000
     29      38.5817      0.00000
     30      40.4397      0.00000
     31      41.7398      0.00000
     32      42.0457      0.00000

 k-point    18 :       0.0000    0.3750    0.0000
  band No.  band energies     occupation 
      1      -3.8577      1.00000
      2      -0.1082      1.00000
      3       3.0535      1.00000
      4       3.0535      1.00000
      5       6.2574      0.00000
      6       7.1833      0.00000
      7      13.5404      0.00000
      8      13.5404      0.00000
      9      15.9903      0.00000
     10      16.0794      0.00000
     11      18.4881      0.00000
     12      18.4881      0.00000
     13      19.0582      0.00000
     14      20.6631      0.00000
     15      21.4455      0.00000
     16      22.2923      0.00000
     17      22.2923      0.00000
     18      24.1553      0.00000
     19      28.7884      0.00000
     20      28.9256      0.00000
     21      29.4220      0.00000
     22      29.4220      0.00000
     23      30.7290      0.00000
     24      32.4656      0.00000
     25      34.2745      0.00000
     26      34.2745      0.00000
     27      34.3340      0.00000
     28      40.2808      0.00000
     29      40.2808      0.00000
     30      40.4026      0.00000
     31      40.7985      0.00000
     32      41.4472      0.00000

 k-point    19 :      -0.2500    0.3750    0.0000
  band No.  band energies     occupation 
      1      -2.5562      1.00000
      2      -1.5590      1.00000
      3       1.4074      1.00000
      4       3.2303      1.00000
      5       6.8412      0.00000
      6       9.7174      0.00000
      7      12.9858      0.00000
      8      13.5180      0.00000
      9      13.6844      0.00000
     10      14.0867      0.00000
     11      20.0974      0.00000
     12      20.3702      0.00000
     13      20.8968      0.00000
     14      21.1331      0.00000
     15      21.3403      0.00000
     16      22.4433      0.00000
     17      24.9843      0.00000
     18      25.3409      0.00000
     19      26.9035      0.00000
     20      27.0252      0.00000
     21      28.2197      0.00000
     22      28.3434      0.00000
     23      30.5038      0.00000
     24      31.2617      0.00000
     25      34.2620      0.00000
     26      34.6391      0.00000
     27      34.8297      0.00000
     28      36.3670      0.00000
     29      39.9484      0.00000
     30      40.0424      0.00000
     31      40.2662      0.00000
     32      40.4711      0.00000

 k-point    20 :      -0.1250    0.3750    0.0000
  band No.  band energies     occupation 
      1      -2.9789      1.00000
      2      -1.1742      1.00000
      3       2.2489      1.00000
      4       2.9783      1.00000
      5       6.5380      0.00000
      6       7.5915      0.00000
      7      13.7787      0.00000
      8      13.8321      0.00000
      9      16.2198      0.00000
     10      16.3241      0.00000
     11      17.8216      0.00000
     12      18.2348      0.00000
     13      20.3388      0.00000
     14      20.4102      0.00000
     15      21.4010      0.00000
     16      24.1301      0.00000
     17      24.1958      0.00000
     18      24.8402      0.00000
     19      26.1540      0.00000
     20      27.6743      0.00000
     21      28.0881      0.00000
     22      28.8311      0.00000
     23      29.4168      0.00000
     24      31.1668      0.00000
     25      34.5664      0.00000
     26      35.3178      0.00000
     27      37.1297      0.00000
     28      38.1282      0.00000
     29      38.1955      0.00000
     30      39.7297      0.00000
     31      40.7766      0.00000
     32      41.9828      0.00000

 k-point    21 :       0.0000    0.5000    0.0000
  band No.  band energies     occupation 
      1      -2.1412      1.00000
      2      -2.1412      1.00000
      3       2.8122      1.00000
      4       2.8122      1.00000
      5       6.3588      0.00000
      6       6.3588      0.00000
      7      15.5380      0.00000
      8      15.5380      0.00000
      9      16.5111      0.00000
     10      16.5111      0.00000
     11      18.0496      0.00000
     12      18.0496      0.00000
     13      18.3980      0.00000
     14      18.3980      0.00000
     15      24.2742      0.00000
     16      24.2743      0.00000
     17      25.1578      0.00000
     18      25.1578      0.00000
     19      25.6152      0.00000
     20      25.6152      0.00000
     21      26.8604      0.00000
     22      26.8604      0.00000
     23      30.7862      0.00000
     24      30.7862      0.00000
     25      34.6810      0.00000
     26      34.6810      0.00000
     27      39.3956      0.00000
     28      39.3956      0.00000
     29      39.5449      0.00000
     30      39.5449      0.00000
     31      41.0157      0.00000
     32      41.0157      0.00000

 k-point    22 :       0.3750    0.1250    0.1250
  band No.  band energies     occupation 
      1      -4.9033      1.00000
      2       1.3357      1.00000
      3       2.9544      1.00000
      4       4.2048      1.00000
      5       8.0492      0.00000
      6       9.4315      0.00000
      7       9.8098      0.00000
      8      11.0452      0.00000
      9      13.3181      0.00000
     10      15.7077      0.00000
     11      16.5658      0.00000
     12      17.6373      0.00000
     13      19.3457      0.00000
     14      20.5451      0.00000
     15      21.3072      0.00000
     16      23.6173      0.00000
     17      24.6971      0.00000
     18      25.9231      0.00000
     19      27.0393      0.00000
     20      28.8050      0.00000
     21      30.5338      0.00000
     22      31.3719      0.00000
     23      33.1558      0.00000
     24      34.0884      0.00000
     25      34.8443      0.00000
     26      36.7256      0.00000
     27      36.9084      0.00000
     28      37.1706      0.00000
     29      39.1108      0.00000
     30      39.1785      0.00000
     31      40.6790      0.00000
     32      40.7343      0.00000

 k-point    23 :       0.5000    0.1250    0.1250
  band No.  band energies     occupation 
      1      -4.0344      1.00000
      2      -0.1828      1.00000
      3       2.3504      1.00000
      4       3.7180      1.00000
      5       8.4701      0.00000
      6       9.1355      0.00000
      7      10.5832      0.00000
      8      11.4830      0.00000
      9      14.5354      0.00000
     10      15.2302      0.00000
     11      17.5064      0.00000
     12      18.3503      0.00000
     13      19.6726      0.00000
     14      20.5946      0.00000
     15      22.6990      0.00000
     16      23.5999      0.00000
     17      24.3895      0.00000
     18      26.3759      0.00000
     19      27.1808      0.00000
     20      28.1630      0.00000
     21      29.5550      0.00000
     22      31.0447      0.00000
     23      31.3529      0.00000
     24      32.5133      0.00000
     25      34.0675      0.00000
     26      34.8833      0.00000
     27      36.4422      0.00000
     28      36.5860      0.00000
     29      37.6614      0.00000
     30      38.4293      0.00000
     31      40.1428      0.00000
     32      41.1090      0.00000

 k-point    24 :      -0.3750    0.1250    0.1250
  band No.  band energies     occupation 
      1      -3.4008      1.00000
      2      -1.1015      1.00000
[...]
      1      -2.1406      1.00000
      2      -2.1406      1.00000
      3       2.8131      1.00000
      4       2.8131      1.00000
      5       6.3534      0.00000
      6       6.3534      0.00000
      7      15.5385      0.00000
      8      15.5385      0.00000
      9      16.5106      0.00000
     10      16.5106      0.00000
     11      18.0513      0.00000
     12      18.0513      0.00000
     13      18.3912      0.00000
     14      18.3912      0.00000
     15      24.2541      0.00000
     16      24.2541      0.00000
     17      25.1525      0.00000
     18      25.1525      0.00000
     19      25.6155      0.00000
     20      25.6155      0.00000
     21      26.8584      0.00000
     22      26.8584      0.00000
     23      30.7816      0.00000
     24      30.7816      0.00000
     25      34.6805      0.00000
     26      34.6805      0.00000
     27      39.3986      0.00000
     28      39.3986      0.00000
     29      39.5361      0.00000
     30      39.5361      0.00000
     31      41.0187      0.00000
     32      41.0187      0.00000

 k-point    22 :       0.3750    0.1250    0.1250
  band No.  band energies     occupation 
      1      -4.9033      1.00000
      2       1.3363      1.00000
      3       2.9541      1.00000
      4       4.2055      1.00000
      5       8.0468      0.00000
      6       9.4316      0.00000
      7       9.8064      0.00000
      8      11.0448      0.00000
      9      13.3182      0.00000
     10      15.7082      0.00000
     11      16.5544      0.00000
     12      17.6258      0.00000
     13      19.3412      0.00000
     14      20.5414      0.00000
     15      21.3031      0.00000
     16      23.6143      0.00000
     17      24.6976      0.00000
     18      25.9122      0.00000
     19      27.0387      0.00000
     20      28.7913      0.00000
     21      30.5325      0.00000
     22      31.3645      0.00000
     23      33.1542      0.00000
     24      34.0825      0.00000
     25      34.8391      0.00000
     26      36.7236      0.00000
     27      36.9102      0.00000
     28      37.1625      0.00000
     29      39.1086      0.00000
     30      39.1794      0.00000
     31      40.6789      0.00000
     32      40.7363      0.00000

 k-point    23 :       0.5000    0.1250    0.1250
  band No.  band energies     occupation 
      1      -4.0341      1.00000
      2      -0.1826      1.00000
      3       2.3498      1.00000
      4       3.7185      1.00000
      5       8.4677      0.00000
      6       9.1337      0.00000
      7      10.5808      0.00000
      8      11.4824      0.00000
      9      14.5347      0.00000
     10      15.2253      0.00000
     11      17.4977      0.00000
     12      18.3503      0.00000
     13      19.6652      0.00000
     14      20.5888      0.00000
     15      22.6933      0.00000
     16      23.5984      0.00000
     17      24.3890      0.00000
     18      26.3711      0.00000
     19      27.1755      0.00000
     20      28.1569      0.00000
     21      29.5537      0.00000
     22      31.0352      0.00000
     23      31.3423      0.00000
     24      32.5101      0.00000
     25      34.0605      0.00000
     26      34.8831      0.00000
     27      36.4365      0.00000
     28      36.5843      0.00000
     29      37.6573      0.00000
     30      38.4265      0.00000
     31      40.1446      0.00000
     32      41.1066      0.00000

 k-point    24 :      -0.3750    0.1250    0.1250
  band No.  band energies     occupation 
      1      -3.4001      1.00000
      2      -1.1017      1.00000
      3       2.2183      1.00000
      4       3.4958      1.00000
      5       8.6273      0.00000
      6       8.7495      0.00000
      7      11.4518      0.00000
      8      12.6666      0.00000
      9      12.9102      0.00000
     10      16.1092      0.00000
     11      17.1529      0.00000
     12      17.8694      0.00000
     13      20.8849      0.00000
     14      20.9961      0.00000
     15      23.5136      0.00000
     16      23.8451      0.00000
     17      24.8660      0.00000
     18      26.1823      0.00000
     19      26.3392      0.00000
     20      27.3523      0.00000
     21      30.3181      0.00000
     22      30.7248      0.00000
     23      30.8022      0.00000
     24      31.5572      0.00000
     25      33.5829      0.00000
     26      34.9494      0.00000
     27      35.2109      0.00000
     28      36.3430      0.00000
     29      37.1482      0.00000
     30      37.6975      0.00000
     31      39.8882      0.00000
     32      40.4947      0.00000

 k-point    25 :      -0.3750    0.2500    0.1250
  band No.  band energies     occupation 
      1      -3.1544      1.00000
      2      -0.9128      1.00000
      3       1.4759      1.00000
      4       3.0811      1.00000
      5       8.4676      0.00000
      6      10.1169      0.00000
      7      10.7693      0.00000
      8      12.5652      0.00000
      9      13.3690      0.00000
     10      14.7510      0.00000
     11      19.5390      0.00000
     12      19.7262      0.00000
     13      20.0692      0.00000
     14      21.6829      0.00000
     15      21.9449      0.00000
     16      23.7376      0.00000
     17      24.5401      0.00000
     18      25.3158      0.00000
     19      26.5130      0.00000
     20      27.4869      0.00000
     21      28.6253      0.00000
     22      29.8871      0.00000
     23      31.2016      0.00000
     24      32.6591      0.00000
     25      33.3655      0.00000
     26      34.4645      0.00000
     27      34.5178      0.00000
     28      36.4265      0.00000
     29      36.7920      0.00000
     30      38.0131      0.00000
     31      40.2873      0.00000
     32      42.6642      0.00000

 k-point    26 :      -0.2500    0.2500    0.1250
  band No.  band energies     occupation 
      1      -2.8109      1.00000
      2      -1.2706      1.00000
      3       1.6384      1.00000
      4       2.7147      1.00000
      5       7.9978      0.00000
      6       9.8701      0.00000
      7      10.8171      0.00000
      8      12.9548      0.00000
      9      13.9106      0.00000
     10      16.5636      0.00000
     11      17.6738      0.00000
     12      19.7746      0.00000
     13      20.7871      0.00000
     14      21.3857      0.00000
     15      22.9483      0.00000
     16      23.7796      0.00000
     17      24.0888      0.00000
     18      24.7635      0.00000
     19      26.4595      0.00000
     20      27.1014      0.00000
     21      28.0851      0.00000
     22      29.5183      0.00000
     23      30.3211      0.00000
     24      32.8545      0.00000
     25      33.4456      0.00000
     26      34.2071      0.00000
     27      35.9300      0.00000
     28      36.5821      0.00000
     29      37.2394      0.00000
     30      37.7515      0.00000
     31      39.7366      0.00000
     32      41.6711      0.00000

 k-point    27 :      -0.1250    0.2500    0.1250
  band No.  band energies     occupation 
      1      -3.6642      1.00000
      2      -0.3225      1.00000
      3       2.3187      1.00000
      4       2.9107      1.00000
      5       7.5585      0.00000
      6       8.2613      0.00000
      7      11.2890      0.00000
      8      13.4917      0.00000
      9      15.6601      0.00000
     10      15.7103      0.00000
     11      18.2860      0.00000
     12      18.7895      0.00000
     13      19.6604      0.00000
     14      20.1094      0.00000
     15      22.0977      0.00000
     16      22.4949      0.00000
     17      24.9663      0.00000
     18      25.3098      0.00000
     19      27.1692      0.00000
     20      27.2508      0.00000
     21      28.8091      0.00000
     22      29.5243      0.00000
     23      31.5673      0.00000
     24      32.8536      0.00000
     25      33.5064      0.00000
     26      34.4273      0.00000
     27      36.9855      0.00000
     28      37.8448      0.00000
     29      37.9451      0.00000
     30      38.4284      0.00000
     31      39.1213      0.00000
     32      42.5912      0.00000

 k-point    28 :      -0.1250    0.3750    0.1250
  band No.  band energies     occupation 
      1      -2.0669      1.00000
      2      -2.0669      1.00000
      3       2.2675      1.00000
      4       2.2675      1.00000
      5       7.5883      0.00000
      6       7.5883      0.00000
      7      13.3548      0.00000
      8      13.3548      0.00000
      9      16.0559      0.00000
     10      16.0559      0.00000
     11      18.3224      0.00000
     12      18.3224      0.00000
     13      20.9732      0.00000
     14      20.9733      0.00000
     15      22.8166      0.00000
     16      22.8166      0.00000
     17      24.4809      0.00000
     18      24.4809      0.00000
     19      27.0482      0.00000
     20      27.0482      0.00000
     21      28.3858      0.00000
     22      28.3858      0.00000
     23      29.4156      0.00000
     24      29.4157      0.00000
     25      35.5465      0.00000
     26      35.5465      0.00000
     27      37.3162      0.00000
     28      37.3163      0.00000
     29      37.7254      0.00000
     30      37.7254      0.00000
     31      41.5343      0.00000
     32      41.5343      0.00000

 k-point    29 :      -0.2500    0.2500    0.2500
  band No.  band energies     occupation 
      1      -1.9861      1.00000
      2      -1.9861      1.00000
      3       1.8455      1.00000
      4       1.8455      1.00000
      5       9.8699      0.00000
      6       9.8699      0.00000
      7      10.5372      0.00000
      8      10.5372      0.00000
      9      16.0535      0.00000
     10      16.0535      0.00000
     11      18.4729      0.00000
     12      18.4729      0.00000
     13      21.8851      0.00000
     14      21.8851      0.00000
     15      24.0021      0.00000
     16      24.0021      0.00000
     17      24.2549      0.00000
     18      24.2549      0.00000
     19      25.1745      0.00000
     20      25.1745      0.00000
     21      29.0096      0.00000
     22      29.0097      0.00000
     23      32.8012      0.00000
     24      32.8012      0.00000
     25      32.9459      0.00000
     26      32.9459      0.00000
     27      34.6865      0.00000
     28      34.6865      0.00000
     29      37.9143      0.00000
     30      37.9143      0.00000
     31      41.9646      0.00000
     32      41.9646      0.00000


--------------------------------------------------------------------------------------------------------


 soft charge-density along one line, spin component           1
         0         1         2         3         4         5         6         7         8         9
 total charge-density along one line
 
 soft charge-density along one line, spin component           2
         0         1         2         3         4         5         6         7         8         9
 total charge-density along one line
 
 pseudopotential strength for first ion, spin component:           1
 18.440  -0.001   0.000  -0.000  -0.000  -0.000   0.000   0.000
 -0.001   0.006  -0.000   0.000   0.000   0.000  -0.000  -0.000
  0.000  -0.000   4.180  -0.000   0.000  -0.004   0.000  -0.000
 -0.000   0.000  -0.000   4.180  -0.000   0.000  -0.004   0.000
 -0.000   0.000   0.000  -0.000   4.180  -0.000   0.000  -0.004
 -0.000   0.000  -0.004   0.000  -0.000   0.005  -0.000   0.000
  0.000  -0.000   0.000  -0.004   0.000  -0.000   0.005  -0.000
  0.000  -0.000  -0.000   0.000  -0.004   0.000  -0.000   0.005
 pseudopotential strength for first ion, spin component:           2
 18.440  -0.001  -0.000   0.000   0.000   0.000  -0.000  -0.000
 -0.001   0.006   0.000  -0.000  -0.000  -0.000   0.000   0.000
 -0.000   0.000   4.181  -0.000   0.000  -0.004   0.000  -0.000
  0.000  -0.000  -0.000   4.181   0.000   0.000  -0.004  -0.000
  0.000  -0.000   0.000   0.000   4.181  -0.000  -0.000  -0.004
  0.000  -0.000  -0.004   0.000  -0.000   0.005  -0.000   0.000
 -0.000   0.000   0.000  -0.004  -0.000  -0.000   0.005   0.000
 -0.000   0.000  -0.000  -0.000  -0.004   0.000   0.000   0.005
 total augmentation occupancy for first ion, spin component:           1
  1.497  -0.749  -0.000  -0.000  -0.000  -0.000   0.000   0.000
 -0.749   0.735  -0.000   0.000  -0.000  -0.000  -0.000   0.000
  0.000  -0.000   1.018   0.000  -0.000  -0.544  -0.000   0.000
  0.000  -0.000   0.000   1.018  -0.000  -0.000  -0.544   0.000
 -0.000   0.000  -0.000  -0.000   1.018   0.000   0.000  -0.544
  0.000   0.000  -0.544  -0.000   0.000   0.345   0.000   0.000
  0.000   0.000  -0.000  -0.544   0.000   0.000   0.345   0.000
  0.000   0.000   0.000   0.000  -0.544   0.000   0.000   0.345
 total augmentation occupancy for first ion, spin component:           2
  0.000  -0.001  -0.000  -0.000  -0.000  -0.000   0.000  -0.000
 -0.001   0.001   0.000  -0.000  -0.000   0.000  -0.000   0.000
  0.000   0.000   0.000   0.000   0.000   0.000   0.000   0.000
 -0.000   0.000   0.000   0.000   0.000   0.000   0.000   0.000
  0.000  -0.000  -0.000   0.000   0.000   0.000  -0.000   0.000
 -0.000   0.000   0.000   0.000  -0.000  -0.000  -0.000   0.000
 -0.000  -0.000   0.000   0.000   0.000  -0.000  -0.000   0.000
 -0.000   0.000   0.000   0.000   0.000  -0.000  -0.000  -0.000


------------------------ aborting loop because EDIFF is reached ----------------------------------------


 


 total charge     
 
# of ion     s       p       d       tot
----------------------------------------
  1        0.751   0.929   0.000   1.679
  2        0.751   0.929   0.000   1.679
------------------------------------------------
tot        1.501   1.857   0.000   3.359
 


 magnetization (x)
 
# of ion     s       p       d       tot
----------------------------------------
  1       -0.000   0.000   0.000  -0.000
  2       -0.000   0.000   0.000  -0.000
------------------------------------------------
tot       -0.000   0.000   0.000  -0.000
 
    CHARGE:  cpu time    0.0580: real time    0.0581
    FORLOC:  cpu time    0.0010: real time    0.0009
    FORNL :  cpu time    0.1280: real time    0.1308
    STRESS:  cpu time    0.3859: real time    0.3880
    FORCOR:  cpu time    0.1110: real time    0.1126
    FORHAR:  cpu time    0.0160: real time    0.0158
    MIXING:  cpu time    0.0010: real time    0.0014
    OFIELD:  cpu time    0.0010: real time    0.0015

  FORCE on cell =-STRESS in cart. coord.  units (eV):
  Direction    XX          YY          ZZ          XY          YZ          ZX
  --------------------------------------------------------------------------------------
  Alpha Z     3.29187     3.29187     3.29187
  Ewald     -75.63840   -75.63832   -75.63837    -0.00000     0.00002    -0.00000
  Hartree     5.06838     5.06839     5.06839     0.00000     0.00000     0.00000
  E(xc)     -25.23181   -25.23180   -25.23180    -0.00001     0.00001     0.00000
  Local     -29.54472   -29.54479   -29.54476     0.00000    -0.00004     0.00000
  n-local    76.59383    76.93885    78.93726     1.26836    -3.50987     0.06162
  augment   -11.65524   -11.65524   -11.65522    -0.00002     0.00002    -0.00000
  Kinetic    53.94702    56.54934    58.32573     0.55893    -2.75172     1.78268
  Fock        0.00000     0.00000     0.00000     0.00000     0.00000     0.00000
  -------------------------------------------------------------------------------------
  Total       0.05411     0.05411     0.05411     0.00000     0.00000     0.00000
  in kB       2.11954     2.11954     2.11954     0.00000     0.00000     0.00000
  external pressure =        2.12 kB  Pullay stress =        0.00 kB


 VOLUME and BASIS-vectors are now :
 -----------------------------------------------------------------------------
  energy-cutoff  :      520.00
  volume of cell :       40.90
      direct lattice vectors                 reciprocal lattice vectors
     3.867484000  0.000000000  0.000000000     0.258566034 -0.149283142 -0.105559013
     1.933742000  3.349340000  0.000000000     0.000000000  0.298566285  0.211118026
     0.000000000 -2.232891000  3.157788000     0.000000000  0.000000000  0.316677370

  length of vectors
     3.867484000  3.867484526  3.867483325     0.316677369  0.365667400  0.316677370


 FORCES acting on ions
    electron-ion (+dipol)            ewald-force                    non-local-force                 convergence-correction
 -----------------------------------------------------------------------------------------------
   -.587E-08 0.127E-04 -.417E-05   -.103E-13 -.216E-04 0.711E-05   0.347E-16 0.347E-17 -.902E-16   -.345E-07 -.507E-08 -.200E-07
   0.587E-08 -.127E-04 0.417E-05   0.112E-13 0.216E-04 -.711E-05   -.347E-16 -.173E-16 0.798E-16   0.345E-07 0.507E-08 0.200E-07
 -----------------------------------------------------------------------------------------------
   -.935E-13 0.150E-13 0.100E-12   0.899E-15 0.819E-16 0.200E-16   0.000E+00 -.139E-16 -.104E-16   -.333E-14 -.373E-14 0.320E-14
 
 
 POSITION                                       TOTAL-FORCE (eV/Angst)
 -----------------------------------------------------------------------------------
      0.00000      0.00000      0.00000        -0.000000     -0.000000     -0.000000
      3.86748      0.00000      2.36834         0.000000      0.000000      0.000000
 -----------------------------------------------------------------------------------
    total drift:                               -0.000000      0.000000      0.000000


--------------------------------------------------------------------------------------------------------



  FREE ENERGIE OF THE ION-ELECTRON SYSTEM (eV)
  ---------------------------------------------------
  free  energy   TOTEN  =       -10.84663771 eV

  energy  without entropy=      -10.84663771  energy(sigma->0) =      -10.84663771
 


--------------------------------------------------------------------------------------------------------


    POTLOK:  cpu time    0.1380: real time    0.1411


--------------------------------------------------------------------------------------------------------


     LOOP+:  cpu time   44.7422: real time   44.8369
    4ORBIT:  cpu time    0.0000: real time    0.0000
 


 total charge     
 
# of ion     s       p       d       tot
----------------------------------------
  1        0.751   0.929   0.000   1.679
  2        0.751   0.929   0.000   1.679
------------------------------------------------
tot        1.501   1.857   0.000   3.359
 


 magnetization (x)
 
# of ion     s       p       d       tot
----------------------------------------
  1       -0.000   0.000   0.000  -0.000
  2       -0.000   0.000   0.000  -0.000
------------------------------------------------
tot       -0.000   0.000   0.000  -0.000
 
 BZINTS: Fermi energy:  5.633515;  8.000000 electrons
         Band energy:   4.841637;  BLOECHL correction:  0.000000

 total amount of memory used by VASP on root node    35027. kBytes
========================================================================

   base      :      30000. kBytes
   nonlr-proj:        832. kBytes
   fftplans  :        365. kBytes
   grid      :       2720. kBytes
   one-center:         12. kBytes
   wavefun   :       1098. kBytes
 
  
  
 General timing and accounting informations for this job:
 ========================================================
  
                  Total CPU time used (sec):       50.200
                            User time (sec):       26.732
                          System time (sec):       23.468
                         Elapsed time (sec):       50.939
  
                   Maximum memory used (kb):       40908.
                   Average memory used (kb):           0.
  
                          Minor page faults:        11483
                          Major page faults:            0
                 Voluntary context switches:        24013
