PROCAR lm decomposed
# of k-points:   29         # of bands:  32         # of ions:   2

 k-point    1 :    0.00000000 0.00000000 0.00000000     weight = 0.00195312

band   1 # energy   -6.20752365 # occ.  1.00000000
 
ion      s     py     pz     px    dxy    dyz    dz2    dxz    dx2    tot
  1  0.212  0.000  0.000  0.000  0.000  0.000  0.000  0.000  0.000  0.212
  2  0.212  0.000  0.000  0.000  0.000  0.000  0.000  0.000  0.000  0.212
tot  0.424  0.000  0.000  0.000  0.000  0.000  0.000  0.000  0.000  0.424
 
band   2 # energy    5.60286685 # occ.  1.00000000
 
ion      s     py     pz     px    dxy    dyz    dz2    dxz    dx2    tot
  1  0.000  0.076  0.120  0.018  0.000  0.000  0.000  0.000  0.000  0.214
  2  0.000  0.076  0.120  0.018  0.000  0.000  0.000  0.000  0.000  0.214
tot  0.000  0.151  0.240  0.036  0.000  0.000  0.000  0.000  0.000  0.428
 
band   3 # energy    5.60288252 # occ.  1.00000000
 
ion      s     py     pz     px    dxy    dyz    dz2    dxz    dx2    tot
  1  0.000  0.039  0.077  0.097  0.000  0.000  0.000  0.000  0.000  0.214
  2  0.000  0.039  0.077  0.097  0.000  0.000  0.000  0.000  0.000  0.214
tot  0.000  0.078  0.155  0.194  0.000  0.000  0.000  0.000  0.000  0.428
 
band   4 # energy    5.60289846 # occ.  1.00000000
 
ion      s     py     pz     px    dxy    dyz    dz2    dxz    dx2    tot
  1  0.000  0.099  0.016  0.099  0.000  0.000  0.000  0.000  0.000  0.214
  2  0.000  0.099  0.016  0.099  0.000  0.000  0.000  0.000  0.000  0.214
tot  0.000  0.198  0.033  0.197  0.000  0.000  0.000  0.000  0.000  0.428
 
band   5 # energy    8.16427831 # occ.  0.00000000
 
ion      s     py     pz     px    dxy    dyz    dz2    dxz    dx2    tot
  1  0.000  0.033  0.102  0.016  0.000  0.000  0.000  0.000  0.000  0.151
  2  0.000  0.033  0.102  0.016  0.000  0.000  0.000  0.000  0.000  0.151
tot  0.000  0.065  0.204  0.032  0.000  0.000  0.000  0.000  0.000  0.301
 
band   6 # energy    8.16428591 # occ.  0.00000000
 
ion      s     py     pz     px    dxy    dyz    dz2    dxz    dx2    tot
  1  0.000  0.016  0.038  0.097  0.000  0.000  0.000  0.000  0.000  0.151
  2  0.000  0.016  0.038  0.097  0.000  0.000  0.000  0.000  0.000  0.151
tot  0.000  0.032  0.076  0.194  0.000  0.000  0.000  0.000  0.000  0.301
 
band   7 # energy    8.16430033 # occ.  0.00000000
 
ion      s     py     pz     px    dxy    dyz    dz2    dxz    dx2    tot
  1  0.000  0.102  0.011  0.038  0.000  0.000  0.000  0.000  0.000  0.151
  2  0.000  0.102  0.011  0.038  0.000  0.000  0.000  0.000  0.000  0.151
tot  0.000  0.204  0.021  0.076  0.000  0.000  0.000  0.000  0.000  0.301
 
band   8 # energy    8.73015452 # occ.  0.00000000
 
ion      s     py     pz     px    dxy    dyz    dz2    dxz    dx2    tot
  1  0.359  0.000  0.000  0.000  0.000  0.000  0.000  0.000  0.000  0.359
  2  0.359  0.000  0.000  0.000  0.000  0.000  0.000  0.000  0.000  0.359
tot  0.717  0.000  0.000  0.000  0.000  0.000  0.000  0.000  0.000  0.717
 
band   9 # energy   13.31743693 # occ.  0.00000000
 
ion      s     py     pz     px    dxy    dyz    dz2    dxz    dx2    tot
  1  0.000  0.000  0.000  0.000  0.000  0.000  0.000  0.000  0.000  0.000
  2  0.000  0.000  0.000  0.000  0.000  0.000  0.000  0.000  0.000  0.000
tot  0.000  0.000  0.000  0.000  0.000  0.000  0.000  0.000  0.000  0.000
 
band  10 # energy   13.31744251 # occ.  0.00000000
 
ion      s     py     pz     px    dxy    dyz    dz2    dxz    dx2    tot
  1  0.000  0.000  0.000  0.000  0.000  0.000  0.000  0.000  0.000  0.000
  2  0.000  0.000  0.000  0.000  0.000  0.000  0.000  0.000  0.000  0.000
tot  0.000  0.000  0.000  0.000  0.000  0.000  0.000  0.000  0.000  0.000
 
band  11 # energy   13.47598257 # occ.  0.00000000
 
ion      s     py     pz     px    dxy    dyz    dz2    dxz    dx2    tot
  1  0.100  0.000  0.000  0.000  0.000  0.000  0.000  0.000  0.000  0.100
  2  0.100  0.000  0.000  0.000  0.000  0.000  0.000  0.000  0.000  0.100
tot  0.201  0.000  0.000  0.000  0.000  0.000  0.000  0.000  0.000  0.201
 
band  12 # energy   16.78944460 # occ.  0.00000000
 
ion      s     py     pz     px    dxy    dyz    dz2    dxz    dx2    tot
  1  0.000  0.015  0.022  0.002  0.000  0.000  0.000  0.000  0.000  0.039
  2  0.000  0.015  0.022  0.002  0.000  0.000  0.000  0.000  0.000  0.039
tot  0.000  0.029  0.045  0.004  0.000  0.000  0.000  0.000  0.000  0.078
 
band  13 # energy   16.78945954 # occ.  0.00000000
 
ion      s     py     pz     px    dxy    dyz    dz2    dxz    dx2    tot
  1  0.000  0.006  0.000  0.033  0.000  0.000  0.000  0.000  0.000  0.039
  2  0.000  0.006  0.000  0.033  0.000  0.000  0.000  0.000  0.000  0.039
tot  0.000  0.013  0.000  0.065  0.000  0.000  0.000  0.000  0.000  0.078
 
band  14 # energy   16.78946155 # occ.  0.00000000
 
ion      s     py     pz     px    dxy    dyz    dz2    dxz    dx2    tot
  1  0.000  0.018  0.017  0.004  0.000  0.000  0.000  0.000  0.000  0.039
  2  0.000  0.018  0.017  0.004  0.000  0.000  0.000  0.000  0.000  0.039
tot  0.000  0.036  0.033  0.009  0.000  0.000  0.000  0.000  0.000  0.078
 
band  15 # energy   20.87045206 # occ.  0.00000000
 
ion      s     py     pz     px    dxy    dyz    dz2    dxz    dx2    tot
  1  0.037  0.000  0.000  0.000  0.000  0.000  0.000  0.000  0.000  0.037
  2  0.037  0.000  0.000  0.000  0.000  0.000  0.000  0.000  0.000  0.037
tot  0.075  0.000  0.000  0.000  0.000  0.000  0.000  0.000  0.000  0.075
 
band  16 # energy   28.45315515 # occ.  0.00000000
 
ion      s     py     pz     px    dxy    dyz    dz2    dxz    dx2    tot
  1  0.000  0.002  0.004  0.005  0.000  0.000  0.000  0.000  0.000  0.010
  2  0.000  0.002  0.004  0.005  0.000  0.000  0.000  0.000  0.000  0.010
tot  0.000  0.003  0.007  0.010  0.000  0.000  0.000  0.000  0.000  0.020
 
band  17 # energy   28.45318835 # occ.  0.00000000
 
ion      s     py     pz     px    dxy    dyz    dz2    dxz    dx2    tot
  1  0.000  0.002  0.003  0.005  0.000  0.000  0.000  0.000  0.000  0.010
  2  0.000  0.002  0.003  0.005  0.000  0.000  0.000  0.000  0.000  0.010
tot  0.000  0.003  0.006  0.011  0.000  0.000  0.000  0.000  0.000  0.020
 
band  18 # energy   28.45324092 # occ.  0.00000000
 
ion      s     py     pz     px    dxy    dyz    dz2    dxz    dx2    tot
  1  0.000  0.007  0.003  0.000  0.000  0.000  0.000  0.000  0.000  0.010
  2  0.000  0.007  0.003  0.000  0.000  0.000  0.000  0.000  0.000  0.010
tot  0.000  0.014  0.007  0.000  0.000  0.000  0.000  0.000  0.000  0.020
 
band  19 # energy   29.53524943 # occ.  0.00000000
 
ion      s     py     pz     px    dxy    dyz    dz2    dxz    dx2    tot
  1  0.000  0.000  0.000  0.000  0.000  0.000  0.000  0.000  0.000  0.000
  2  0.000  0.000  0.000  0.000  0.000  0.000  0.000  0.000  0.000  0.000
tot  0.000  0.000  0.000  0.000  0.000  0.000  0.000  0.000  0.000  0.000
 
band  20 # energy   29.53528247 # occ.  0.00000000
 
ion      s     py     pz     px    dxy    dyz    dz2    dxz    dx2    tot
  1  0.000  0.000  0.000  0.000  0.000  0.000  0.000  0.000  0.000  0.000
  2  0.000  0.000  0.000  0.000  0.000  0.000  0.000  0.000  0.000  0.000
tot  0.000  0.000  0.000  0.000  0.000  0.000  0.000  0.000  0.000  0.000
 
band  21 # energy   30.97516898 # occ.  0.00000000
 
ion      s     py     pz     px    dxy    dyz    dz2    dxz    dx2    tot
  1  0.000  0.052  0.146  0.026  0.000  0.000  0.000  0.000  0.000  0.225
  2  0.000  0.052  0.146  0.026  0.000  0.000  0.000  0.000  0.000  0.225
tot  0.000  0.105  0.293  0.052  0.000  0.000  0.000  0.000  0.000  0.450
 
band  22 # energy   30.97520049 # occ.  0.00000000
 
ion      s     py     pz     px    dxy    dyz    dz2    dxz    dx2    tot
  1  0.000  0.022  0.062  0.141  0.000  0.000  0.000  0.000  0.000  0.225
  2  0.000  0.022  0.062  0.141  0.000  0.000  0.000  0.000  0.000  0.225
tot  0.000  0.045  0.123  0.282  0.000  0.000  0.000  0.000  0.000  0.450
 
band  23 # energy   30.97522898 # occ.  0.00000000
 
ion      s     py     pz     px    dxy    dyz    dz2    dxz    dx2    tot
  1  0.000  0.150  0.017  0.058  0.000  0.000  0.000  0.000  0.000  0.225
  2  0.000  0.150  0.017  0.058  0.000  0.000  0.000  0.000  0.000  0.225
tot  0.000  0.301  0.034  0.116  0.000  0.000  0.000  0.000  0.000  0.450
 
band  24 # energy   34.51482951 # occ.  0.00000000
 
ion      s     py     pz     px    dxy    dyz    dz2    dxz    dx2    tot
  1  0.000  0.000  0.000  0.000  0.000  0.000  0.000  0.000  0.000  0.000
  2  0.000  0.000  0.000  0.000  0.000  0.000  0.000  0.000  0.000  0.000
tot  0.000  0.000  0.000  0.000  0.000  0.000  0.000  0.000  0.000  0.000
 
band  25 # energy   34.51484740 # occ.  0.00000000
 
ion      s     py     pz     px    dxy    dyz    dz2    dxz    dx2    tot
  1  0.000  0.000  0.000  0.000  0.000  0.000  0.000  0.000  0.000  0.000
  2  0.000  0.000  0.000  0.000  0.000  0.000  0.000  0.000  0.000  0.000
tot  0.000  0.000  0.000  0.000  0.000  0.000  0.000  0.000  0.000  0.000
 
band  26 # energy   34.51485195 # occ.  0.00000000
 
ion      s     py     pz     px    dxy    dyz    dz2    dxz    dx2    tot
  1  0.000  0.000  0.000  0.000  0.000  0.000  0.000  0.000  0.000  0.000
  2  0.000  0.000  0.000  0.000  0.000  0.000  0.000  0.000  0.000  0.000
tot  0.000  0.000  0.000  0.000  0.000  0.000  0.000  0.000  0.000  0.000
 
band  27 # energy   40.08982280 # occ.  0.00000000
 
ion      s     py     pz     px    dxy    dyz    dz2    dxz    dx2    tot
  1  0.000  0.001  0.002  0.003  0.000  0.000  0.000  0.000  0.000  0.006
  2  0.000  0.001  0.002  0.003  0.000  0.000  0.000  0.000  0.000  0.006
tot  0.000  0.002  0.004  0.006  0.000  0.000  0.000  0.000  0.000  0.011
 
band  28 # energy   40.08988268 # occ.  0.00000000
 
ion      s     py     pz     px    dxy    dyz    dz2    dxz    dx2    tot
  1  0.000  0.001  0.002  0.003  0.000  0.000  0.000  0.000  0.000  0.006
  2  0.000  0.001  0.002  0.003  0.000  0.000  0.000  0.000  0.000  0.006
tot  0.000  0.002  0.004  0.005  0.000  0.000  0.000  0.000  0.000  0.011
 
band  29 # energy   40.08994647 # occ.  0.00000000
 
ion      s     py     pz     px    dxy    dyz    dz2    dxz    dx2    tot
  1  0.000  0.004  0.002  0.000  0.000  0.000  0.000  0.000  0.000  0.006
  2  0.000  0.004  0.002  0.000  0.000  0.000  0.000  0.000  0.000  0.006
tot  0.000  0.008  0.003  0.000  0.000  0.000  0.000  0.000  0.000  0.011
 
band  30 # energy   43.38850330 # occ.  0.00000000
 
ion      s     py     pz     px    dxy    dyz    dz2    dxz    dx2    tot
  1  0.095  0.000  0.000  0.000  0.000  0.000  0.000  0.000  0.000  0.095
  2  0.095  0.000  0.000  0.000  0.000  0.000  0.000  0.000  0.000  0.095
tot  0.191  0.000  0.000  0.000  0.000  0.000  0.000  0.000  0.000  0.191
 
band  31 # energy   43.86693662 # occ.  0.00000000
 
ion      s     py     pz     px    dxy    dyz    dz2    dxz    dx2    tot
  1  0.000  0.000  0.000  0.000  0.000  0.000  0.000  0.000  0.000  0.000
  2  0.000  0.000  0.000  0.000  0.000  0.000  0.000  0.000  0.000  0.000
tot  0.000  0.000  0.000  0.000  0.000  0.000  0.000  0.000  0.000  0.000
 
band  32 # energy   43.86694727 # occ.  0.00000000
 
ion      s     py     pz     px    dxy    dyz    dz2    dxz    dx2    tot
  1  0.000  0.000  0.000  0.000  0.000  0.000  0.000  0.000  0.000  0.000
  2  0.000  0.000  0.000  0.000  0.000  0.000  0.000  0.000  0.000  0.000
tot  0.000  0.000  0.000  0.000  0.000  0.000  0.000  0.000  0.000  0.000
 

 k-point    2 :    0.12500000 0.00000000-0.00000000     weight = 0.01562500

band   1 # energy   -6.00715944 # occ.  1.00000000
 
ion      s     py     pz     px    dxy    dyz    dz2    dxz    dx2    tot
  1  0.211  0.000  0.000  0.001  0.000  0.000  0.000  0.000  0.000  0.213
  2  0.211  0.000  0.000  0.001  0.000  0.000  0.000  0.000  0.000  0.213
tot  0.422  0.001  0.000  0.003  0.000  0.000  0.000  0.000  0.000  0.426
 
band   2 # energy    4.01301973 # occ.  1.00000000
 
ion      s     py     pz     px    dxy    dyz    dz2    dxz    dx2    tot
  1  0.064  0.034  0.017  0.103  0.000  0.000  0.000  0.000  0.000  0.219
  2  0.064  0.034  0.017  0.103  0.000  0.000  0.000  0.000  0.000  0.219
tot  0.129  0.069  0.034  0.207  0.000  0.000  0.000  0.000  0.000  0.439
 
band   3 # energy    5.32108602 # occ.  1.00000000
 
ion      s     py     pz     px    dxy    dyz    dz2    dxz    dx2    tot
  1  0.000  0.004  0.167  0.041  0.000  0.000  0.000  0.000  0.000  0.211
  2  0.000  0.004  0.167  0.041  0.000  0.000  0.000  0.000  0.000  0.211
tot  0.000  0.007  0.334  0.081  0.000  0.000  0.000  0.000  0.000  0.422
 
band   4 # energy    5.32110477 # occ.  1.00000000
 
ion      s     py     pz     px    dxy    dyz    dz2    dxz    dx2    tot
  1  0.000  0.161  0.021  0.030  0.000  0.000  0.000  0.000  0.000  0.211
  2  0.000  0.161  0.021  0.030  0.000  0.000  0.000  0.000  0.000  0.211
tot  0.000  0.321  0.041  0.060  0.000  0.000  0.000  0.000  0.000  0.422
 
band   5 # energy    8.04712710 # occ.  0.00000000
 
ion      s     py     pz     px    dxy    dyz    dz2    dxz    dx2    tot
  1  0.110  0.020  0.010  0.059  0.000  0.000  0.000  0.000  0.000  0.198
  2  0.110  0.020  0.010  0.059  0.000  0.000  0.000  0.000  0.000  0.198
tot  0.220  0.039  0.020  0.118  0.000  0.000  0.000  0.000  0.000  0.397
 
band   6 # energy    8.57913987 # occ.  0.00000000
 
ion      s     py     pz     px    dxy    dyz    dz2    dxz    dx2    tot
  1  0.000  0.001  0.126  0.027  0.000  0.000  0.000  0.000  0.000  0.154
  2  0.000  0.001  0.126  0.027  0.000  0.000  0.000  0.000  0.000  0.154
tot  0.000  0.002  0.252  0.054  0.000  0.000  0.000  0.000  0.000  0.308
 
band   7 # energy    8.57915774 # occ.  0.00000000
 
ion      s     py     pz     px    dxy    dyz    dz2    dxz    dx2    tot
  1  0.000  0.119  0.011  0.024  0.000  0.000  0.000  0.000  0.000  0.154
  2  0.000  0.119  0.011  0.024  0.000  0.000  0.000  0.000  0.000  0.154
tot  0.000  0.238  0.022  0.049  0.000  0.000  0.000  0.000  0.000  0.308
 
band   8 # energy   10.13122915 # occ.  0.00000000
 
ion      s     py     pz     px    dxy    dyz    dz2    dxz    dx2    tot
  1  0.196  0.022  0.011  0.066  0.000  0.000  0.000  0.000  0.000  0.295
  2  0.196  0.022  0.011  0.066  0.000  0.000  0.000  0.000  0.000  0.295
tot  0.392  0.044  0.022  0.132  0.000  0.000  0.000  0.000  0.000  0.590
 
band   9 # energy   12.84476968 # occ.  0.00000000
 
ion      s     py     pz     px    dxy    dyz    dz2    dxz    dx2    tot
  1  0.000  0.001  0.000  0.001  0.000  0.000  0.000  0.000  0.000  0.002
  2  0.000  0.001  0.000  0.001  0.000  0.000  0.000  0.000  0.000  0.002
tot  0.000  0.002  0.001  0.001  0.000  0.000  0.000  0.000  0.000  0.004
 
band  10 # energy   12.84477255 # occ.  0.00000000
 
ion      s     py     pz     px    dxy    dyz    dz2    dxz    dx2    tot
  1  0.000  0.000  0.001  0.000  0.000  0.000  0.000  0.000  0.000  0.002
  2  0.000  0.000  0.001  0.000  0.000  0.000  0.000  0.000  0.000  0.002
tot  0.000  0.001  0.003  0.000  0.000  0.000  0.000  0.000  0.000  0.004
 
band  11 # energy   14.25221108 # occ.  0.00000000
 
ion      s     py     pz     px    dxy    dyz    dz2    dxz    dx2    tot
  1  0.077  0.007  0.004  0.021  0.000  0.000  0.000  0.000  0.000  0.109
  2  0.077  0.007  0.004  0.021  0.000  0.000  0.000  0.000  0.000  0.109
tot  0.155  0.014  0.007  0.043  0.000  0.000  0.000  0.000  0.000  0.219
 
band  12 # energy   16.23417862 # occ.  0.00000000
 
ion      s     py     pz     px    dxy    dyz    dz2    dxz    dx2    tot
  1  0.015  0.005  0.002  0.015  0.000  0.000  0.000  0.000  0.000  0.037
  2  0.015  0.005  0.002  0.015  0.000  0.000  0.000  0.000  0.000  0.037
tot  0.030  0.010  0.005  0.029  0.000  0.000  0.000  0.000  0.000  0.074
 
band  13 # energy   17.93407150 # occ.  0.00000000
 
ion      s     py     pz     px    dxy    dyz    dz2    dxz    dx2    tot
  1  0.000  0.009  0.015  0.011  0.000  0.000  0.000  0.000  0.000  0.035
  2  0.000  0.009  0.015  0.011  0.000  0.000  0.000  0.000  0.000  0.035
tot  0.000  0.018  0.030  0.022  0.000  0.000  0.000  0.000  0.000  0.070
 
band  14 # energy   17.93407873 # occ.  0.00000000
 
ion      s     py     pz     px    dxy    dyz    dz2    dxz    dx2    tot
  1  0.000  0.018  0.016  0.001  0.000  0.000  0.000  0.000  0.000  0.035
  2  0.000  0.018  0.016  0.001  0.000  0.000  0.000  0.000  0.000  0.035
tot  0.000  0.036  0.033  0.001  0.000  0.000  0.000  0.000  0.000  0.070
 
band  15 # energy   22.08585862 # occ.  0.00000000
 
ion      s     py     pz     px    dxy    dyz    dz2    dxz    dx2    tot
  1  0.025  0.003  0.002  0.010  0.000  0.000  0.000  0.000  0.000  0.040
  2  0.025  0.003  0.002  0.010  0.000  0.000  0.000  0.000  0.000  0.040
tot  0.049  0.007  0.003  0.021  0.000  0.000  0.000  0.000  0.000  0.080
 
band  16 # energy   26.44660695 # occ.  0.00000000
 
ion      s     py     pz     px    dxy    dyz    dz2    dxz    dx2    tot
  1  0.000  0.009  0.033  0.000  0.000  0.000  0.000  0.000  0.000  0.042
  2  0.000  0.009  0.033  0.000  0.000  0.000  0.000  0.000  0.000  0.042
tot  0.000  0.018  0.066  0.001  0.000  0.000  0.000  0.000  0.000  0.085
 
band  17 # energy   26.44664009 # occ.  0.00000000
 
ion      s     py     pz     px    dxy    dyz    dz2    dxz    dx2    tot
  1  0.000  0.024  0.005  0.014  0.000  0.000  0.000  0.000  0.000  0.042
  2  0.000  0.024  0.005  0.014  0.000  0.000  0.000  0.000  0.000  0.042
tot  0.000  0.048  0.009  0.027  0.000  0.000  0.000  0.000  0.000  0.085
 
band  18 # energy   26.72380195 # occ.  0.00000000
 
ion      s     py     pz     px    dxy    dyz    dz2    dxz    dx2    tot
  1  0.007  0.022  0.011  0.065  0.000  0.000  0.000  0.000  0.000  0.104
  2  0.007  0.022  0.011  0.065  0.000  0.000  0.000  0.000  0.000  0.104
tot  0.014  0.043  0.022  0.130  0.000  0.000  0.000  0.000  0.000  0.208
 
band  19 # energy   29.19460522 # occ.  0.00000000
 
ion      s     py     pz     px    dxy    dyz    dz2    dxz    dx2    tot
  1  0.000  0.004  0.002  0.000  0.000  0.000  0.000  0.000  0.000  0.007
  2  0.000  0.004  0.002  0.000  0.000  0.000  0.000  0.000  0.000  0.007
tot  0.000  0.008  0.005  0.001  0.000  0.000  0.000  0.000  0.000  0.014
 
band  20 # energy   29.19464675 # occ.  0.00000000
 
ion      s     py     pz     px    dxy    dyz    dz2    dxz    dx2    tot
  1  0.000  0.001  0.004  0.002  0.000  0.000  0.000  0.000  0.000  0.007
  2  0.000  0.001  0.004  0.002  0.000  0.000  0.000  0.000  0.000  0.007
tot  0.000  0.002  0.008  0.004  0.000  0.000  0.000  0.000  0.000  0.014
 
band  21 # energy   31.51593840 # occ.  0.00000000
 
ion      s     py     pz     px    dxy    dyz    dz2    dxz    dx2    tot
  1  0.000  0.000  0.154  0.025  0.000  0.000  0.000  0.000  0.000  0.179
  2  0.000  0.000  0.154  0.025  0.000  0.000  0.000  0.000  0.000  0.179
tot  0.000  0.000  0.308  0.049  0.000  0.000  0.000  0.000  0.000  0.358
 
band  22 # energy   31.51596688 # occ.  0.00000000
 
ion      s     py     pz     px    dxy    dyz    dz2    dxz    dx2    tot
  1  0.000  0.139  0.005  0.035  0.000  0.000  0.000  0.000  0.000  0.179
  2  0.000  0.139  0.005  0.035  0.000  0.000  0.000  0.000  0.000  0.179
tot  0.000  0.278  0.010  0.070  0.000  0.000  0.000  0.000  0.000  0.358
 
band  23 # energy   32.41554462 # occ.  0.00000000
 
ion      s     py     pz     px    dxy    dyz    dz2    dxz    dx2    tot
  1  0.014  0.024  0.012  0.073  0.000  0.000  0.000  0.000  0.000  0.123
  2  0.014  0.024  0.012  0.073  0.000  0.000  0.000  0.000  0.000  0.123
tot  0.027  0.049  0.024  0.146  0.000  0.000  0.000  0.000  0.000  0.246
 
band  24 # energy   34.69669927 # occ.  0.00000000
 
ion      s     py     pz     px    dxy    dyz    dz2    dxz    dx2    tot
  1  0.000  0.000  0.000  0.000  0.000  0.000  0.000  0.000  0.000  0.000
  2  0.000  0.000  0.000  0.000  0.000  0.000  0.000  0.000  0.000  0.000
tot  0.000  0.000  0.000  0.000  0.000  0.000  0.000  0.000  0.000  0.000
 
band  25 # energy   36.65679136 # occ.  0.00000000
 
ion      s     py     pz     px    dxy    dyz    dz2    dxz    dx2    tot
  1  0.000  0.001  0.002  0.000  0.000  0.000  0.000  0.000  0.000  0.003
  2  0.000  0.001  0.002  0.000  0.000  0.000  0.000  0.000  0.000  0.003
tot  0.000  0.001  0.004  0.000  0.000  0.000  0.000  0.000  0.000  0.006
 
band  26 # energy   36.65681756 # occ.  0.00000000
 
ion      s     py     pz     px    dxy    dyz    dz2    dxz    dx2    tot
  1  0.000  0.002  0.000  0.001  0.000  0.000  0.000  0.000  0.000  0.003
  2  0.000  0.002  0.000  0.001  0.000  0.000  0.000  0.000  0.000  0.003
tot  0.000  0.003  0.001  0.002  0.000  0.000  0.000  0.000  0.000  0.006
 
band  27 # energy   37.73251770 # occ.  0.00000000
 
ion      s     py     pz     px    dxy    dyz    dz2    dxz    dx2    tot
  1  0.005  0.006  0.003  0.017  0.000  0.000  0.000  0.000  0.000  0.030
  2  0.005  0.006  0.003  0.017  0.000  0.000  0.000  0.000  0.000  0.030
tot  0.009  0.011  0.006  0.034  0.000  0.000  0.000  0.000  0.000  0.060
 
band  28 # energy   39.56720544 # occ.  0.00000000
 
ion      s     py     pz     px    dxy    dyz    dz2    dxz    dx2    tot
  1  0.000  0.008  0.010  0.000  0.000  0.000  0.000  0.000  0.000  0.018
  2  0.000  0.008  0.010  0.000  0.000  0.000  0.000  0.000  0.000  0.018
tot  0.000  0.016  0.020  0.000  0.000  0.000  0.000  0.000  0.000  0.037
 
band  29 # energy   39.56725757 # occ.  0.00000000
 
ion      s     py     pz     px    dxy    dyz    dz2    dxz    dx2    tot
  1  0.000  0.006  0.006  0.006  0.000  0.000  0.000  0.000  0.000  0.018
  2  0.000  0.006  0.006  0.006  0.000  0.000  0.000  0.000  0.000  0.018
tot  0.000  0.012  0.013  0.012  0.000  0.000  0.000  0.000  0.000  0.037
 
band  30 # energy   41.98395365 # occ.  0.00000000
 
ion      s     py     pz     px    dxy    dyz    dz2    dxz    dx2    tot
  1  0.000  0.007  0.000  0.003  0.000  0.000  0.000  0.000  0.000  0.010
  2  0.000  0.007  0.000  0.003  0.000  0.000  0.000  0.000  0.000  0.010
tot  0.000  0.015  0.000  0.006  0.000  0.000  0.000  0.000  0.000  0.021
 
band  31 # energy   41.98396748 # occ.  0.00000000
 
ion      s     py     pz     px    dxy    dyz    dz2    dxz    dx2    tot
  1  0.000  0.001  0.009  0.001  0.000  0.000  0.000  0.000  0.000  0.010
  2  0.000  0.001  0.009  0.001  0.000  0.000  0.000  0.000  0.000  0.010
tot  0.000  0.002  0.018  0.001  0.000  0.000  0.000  0.000  0.000  0.021
 
band  32 # energy   43.81769005 # occ.  0.00000000
 
ion      s     py     pz     px    dxy    dyz    dz2    dxz    dx2    tot
  1  0.000  0.004  0.010  0.005  0.000  0.000  0.000  0.000  0.000  0.019
  2  0.000  0.004  0.010  0.005  0.000  0.000  0.000  0.000  0.000  0.019
tot  0.000  0.008  0.021  0.010  0.000  0.000  0.000  0.000  0.000  0.038
 

 k-point    3 :    0.25000000 0.00000000-0.00000000     weight = 0.01562500

band   1 # energy   -5.42304711 # occ.  1.00000000
 
ion      s     py     pz     px    dxy    dyz    dz2    dxz    dx2    tot
  1  0.209  0.002  0.001  0.005  0.000  0.000  0.000  0.000  0.000  0.217
  2  0.209  0.002  0.001  0.005  0.000  0.000  0.000  0.000  0.000  0.217
tot  0.419  0.003  0.002  0.010  0.000  0.000  0.000  0.000  0.000  0.434
 
band   2 # energy    1.71867013 # occ.  1.00000000
 
ion      s     py     pz     px    dxy    dyz    dz2    dxz    dx2    tot
  1  0.097  0.026  0.013  0.078  0.000  0.000  0.000  0.000  0.000  0.214
  2  0.097  0.026  0.013  0.078  0.000  0.000  0.000  0.000  0.000  0.214
tot  0.194  0.052  0.026  0.156  0.000  0.000  0.000  0.000  0.000  0.429
 
band   3 # energy    4.85902982 # occ.  1.00000000
 
ion      s     py     pz     px    dxy    dyz    dz2    dxz    dx2    tot
  1  0.000  0.006  0.163  0.043  0.000  0.000  0.000  0.000  0.000  0.211
  2  0.000  0.006  0.163  0.043  0.000  0.000  0.000  0.000  0.000  0.211
tot  0.000  0.011  0.325  0.086  0.000  0.000  0.000  0.000  0.000  0.423
 
band   4 # energy    4.85904839 # occ.  1.00000000
 
ion      s     py     pz     px    dxy    dyz    dz2    dxz    dx2    tot
  1  0.000  0.159  0.025  0.027  0.000  0.000  0.000  0.000  0.000  0.211
  2  0.000  0.159  0.025  0.027  0.000  0.000  0.000  0.000  0.000  0.211
tot  0.000  0.317  0.051  0.055  0.000  0.000  0.000  0.000  0.000  0.423
 
band   5 # energy    7.56229516 # occ.  0.00000000
 
ion      s     py     pz     px    dxy    dyz    dz2    dxz    dx2    tot
  1  0.156  0.011  0.005  0.032  0.000  0.000  0.000  0.000  0.000  0.205
  2  0.156  0.011  0.005  0.032  0.000  0.000  0.000  0.000  0.000  0.205
tot  0.312  0.022  0.011  0.065  0.000  0.000  0.000  0.000  0.000  0.409
 
band   6 # energy    9.09701634 # occ.  0.00000000
 
ion      s     py     pz     px    dxy    dyz    dz2    dxz    dx2    tot
  1  0.000  0.004  0.106  0.029  0.000  0.000  0.000  0.000  0.000  0.139
  2  0.000  0.004  0.106  0.029  0.000  0.000  0.000  0.000  0.000  0.139
tot  0.000  0.008  0.212  0.058  0.000  0.000  0.000  0.000  0.000  0.278
 
band   7 # energy    9.09703300 # occ.  0.00000000
 
ion      s     py     pz     px    dxy    dyz    dz2    dxz    dx2    tot
  1  0.000  0.104  0.018  0.017  0.000  0.000  0.000  0.000  0.000  0.139
  2  0.000  0.104  0.018  0.017  0.000  0.000  0.000  0.000  0.000  0.139
tot  0.000  0.208  0.035  0.035  0.000  0.000  0.000  0.000  0.000  0.278
 
band   8 # energy   12.34981616 # occ.  0.00000000
 
ion      s     py     pz     px    dxy    dyz    dz2    dxz    dx2    tot
  1  0.111  0.034  0.017  0.101  0.000  0.000  0.000  0.000  0.000  0.262
  2  0.111  0.034  0.017  0.101  0.000  0.000  0.000  0.000  0.000  0.262
tot  0.222  0.067  0.034  0.201  0.000  0.000  0.000  0.000  0.000  0.524
 
band   9 # energy   12.79523278 # occ.  0.00000000
 
ion      s     py     pz     px    dxy    dyz    dz2    dxz    dx2    tot
  1  0.000  0.002  0.013  0.000  0.000  0.000  0.000  0.000  0.000  0.016
  2  0.000  0.002  0.013  0.000  0.000  0.000  0.000  0.000  0.000  0.016
tot  0.000  0.005  0.026  0.001  0.000  0.000  0.000  0.000  0.000  0.032
 
band  10 # energy   12.79523769 # occ.  0.00000000
 
ion      s     py     pz     px    dxy    dyz    dz2    dxz    dx2    tot
  1  0.000  0.010  0.001  0.005  0.000  0.000  0.000  0.000  0.000  0.016
  2  0.000  0.010  0.001  0.005  0.000  0.000  0.000  0.000  0.000  0.016
tot  0.000  0.020  0.002  0.010  0.000  0.000  0.000  0.000  0.000  0.032
 
band  11 # energy   14.53232541 # occ.  0.00000000
 
ion      s     py     pz     px    dxy    dyz    dz2    dxz    dx2    tot
  1  0.048  0.005  0.002  0.014  0.000  0.000  0.000  0.000  0.000  0.069
  2  0.048  0.005  0.002  0.014  0.000  0.000  0.000  0.000  0.000  0.069
tot  0.095  0.009  0.005  0.028  0.000  0.000  0.000  0.000  0.000  0.138
 
band  12 # energy   17.31183312 # occ.  0.00000000
 
ion      s     py     pz     px    dxy    dyz    dz2    dxz    dx2    tot
  1  0.036  0.016  0.008  0.049  0.000  0.000  0.000  0.000  0.000  0.109
  2  0.036  0.016  0.008  0.049  0.000  0.000  0.000  0.000  0.000  0.109
tot  0.073  0.032  0.016  0.097  0.000  0.000  0.000  0.000  0.000  0.218
 
band  13 # energy   20.11974194 # occ.  0.00000000
 
ion      s     py     pz     px    dxy    dyz    dz2    dxz    dx2    tot
  1  0.000  0.000  0.031  0.004  0.000  0.000  0.000  0.000  0.000  0.035
  2  0.000  0.000  0.031  0.004  0.000  0.000  0.000  0.000  0.000  0.035
tot  0.000  0.001  0.062  0.007  0.000  0.000  0.000  0.000  0.000  0.070
 
band  14 # energy   20.11974312 # occ.  0.00000000
 
ion      s     py     pz     px    dxy    dyz    dz2    dxz    dx2    tot
  1  0.000  0.027  0.000  0.008  0.000  0.000  0.000  0.000  0.000  0.035
  2  0.000  0.027  0.000  0.008  0.000  0.000  0.000  0.000  0.000  0.035
tot  0.000  0.054  0.000  0.016  0.000  0.000  0.000  0.000  0.000  0.070
 
band  15 # energy   23.28170370 # occ.  0.00000000
 
ion      s     py     pz     px    dxy    dyz    dz2    dxz    dx2    tot
  1  0.000  0.003  0.043  0.003  0.000  0.000  0.000  0.000  0.000  0.049
  2  0.000  0.003  0.043  0.003  0.000  0.000  0.000  0.000  0.000  0.049
tot  0.000  0.007  0.087  0.005  0.000  0.000  0.000  0.000  0.000  0.099
 
band  16 # energy   23.28172392 # occ.  0.00000000
 
ion      s     py     pz     px    dxy    dyz    dz2    dxz    dx2    tot
  1  0.000  0.035  0.001  0.014  0.000  0.000  0.000  0.000  0.000  0.049
  2  0.000  0.035  0.001  0.014  0.000  0.000  0.000  0.000  0.000  0.049
tot  0.000  0.070  0.001  0.028  0.000  0.000  0.000  0.000  0.000  0.099
 
band  17 # energy   23.36283719 # occ.  0.00000000
 
ion      s     py     pz     px    dxy    dyz    dz2    dxz    dx2    tot
  1  0.022  0.021  0.011  0.064  0.000  0.000  0.000  0.000  0.000  0.117
  2  0.022  0.021  0.011  0.064  0.000  0.000  0.000  0.000  0.000  0.117
tot  0.044  0.042  0.021  0.127  0.000  0.000  0.000  0.000  0.000  0.234
 
band  18 # energy   25.46936417 # occ.  0.00000000
 
ion      s     py     pz     px    dxy    dyz    dz2    dxz    dx2    tot
  1  0.022  0.010  0.005  0.030  0.000  0.000  0.000  0.000  0.000  0.067
  2  0.022  0.010  0.005  0.030  0.000  0.000  0.000  0.000  0.000  0.067
tot  0.044  0.020  0.010  0.061  0.000  0.000  0.000  0.000  0.000  0.135
 
band  19 # energy   29.36934641 # occ.  0.00000000
 
ion      s     py     pz     px    dxy    dyz    dz2    dxz    dx2    tot
  1  0.000  0.004  0.002  0.000  0.000  0.000  0.000  0.000  0.000  0.006
  2  0.000  0.004  0.002  0.000  0.000  0.000  0.000  0.000  0.000  0.006
tot  0.000  0.008  0.004  0.001  0.000  0.000  0.000  0.000  0.000  0.012
 
band  20 # energy   29.36939033 # occ.  0.00000000
 
ion      s     py     pz     px    dxy    dyz    dz2    dxz    dx2    tot
  1  0.000  0.001  0.003  0.002  0.000  0.000  0.000  0.000  0.000  0.006
  2  0.000  0.001  0.003  0.002  0.000  0.000  0.000  0.000  0.000  0.006
tot  0.000  0.002  0.007  0.004  0.000  0.000  0.000  0.000  0.000  0.012
 
band  21 # energy   31.87003340 # occ.  0.00000000
 
ion      s     py     pz     px    dxy    dyz    dz2    dxz    dx2    tot