<?xml version="1.0" encoding="ISO-8859-1"?>
<modeling>
 <generator>
  <i name="program" type="string">vasp </i>
  <i name="version" type="string">5.4.1  </i>
  <i name="subversion" type="string">24Jun15 (build Feb 01 2016 23:38:11) complex                          parallel </i>
  <i name="platform" type="string">IFC91_impi </i>
  <i name="date" type="string">2016 08 04 </i>
  <i name="time" type="string">10:22:35 </i>
 </generator>
 <incar>
  <i type="string" name="PREC">accurate</i>
  <i type="string" name="ALGO"> Normal</i>
  <i type="int" name="ISPIN">     2</i>
  <i type="int" name="ICHARG">     0</i>
  <i type="int" name="NELM">   100</i>
  <i type="int" name="IBRION">    -1</i>
  <i name="EDIFF">      0.00010000</i>
  <i type="int" name="NSW">     0</i>
  <i type="int" name="ISIF">     3</i>
  <i name="ENCUT">    520.00000000</i>
  <v name="MAGMOM">      0.00000000      0.00000000</v>
  <i type="string" name="LREAL"> Auto</i>
  <i type="int" name="ISMEAR">    -5</i>
  <i name="SIGMA">      0.05000000</i>
  <i type="logical" name="LWAVE"> F  </i>
  <i type="logical" name="LCHARG"> T  </i>
  <i type="logical" name="LVHAR"> T  </i>
  <i type="logical" name="LORBIT"> F  </i>
  <i type="logical" name="LAECHG"> T  </i>
  <v type="int" name="KPOINT_BSE">    -1     0     0     0</v>
  <i type="int" name="NELM">   100</i>
 </incar>
 <kpoints>
  <generation param="Gamma">
   <v type="int" name="divisions">       8        8        8 </v>
   <v name="usershift">      0.00000000       0.00000000       0.00000000 </v>
   <v name="genvec1">      0.12500000       0.00000000       0.00000000 </v>
   <v name="genvec2">      0.00000000       0.12500000       0.00000000 </v>
   <v name="genvec3">      0.00000000       0.00000000       0.12500000 </v>
   <v name="shift">      0.00000000       0.00000000       0.00000000 </v>
  </generation>
  <varray name="kpointlist" >
   <v>       0.00000000       0.00000000       0.00000000 </v>
   <v>       0.12500000       0.00000000      -0.00000000 </v>
   <v>       0.25000000       0.00000000      -0.00000000 </v>
   <v>       0.37500000       0.00000000      -0.00000000 </v>
   <v>       0.50000000       0.00000000      -0.00000000 </v>
   <v>       0.00000000       0.12500000       0.00000000 </v>
   <v>       0.25000000       0.12500000       0.00000000 </v>
   <v>       0.37500000       0.12500000      -0.00000000 </v>
   <v>       0.50000000       0.12500000       0.00000000 </v>
   <v>      -0.37500000       0.12500000       0.00000000 </v>
   <v>      -0.25000000       0.12500000       0.00000000 </v>
   <v>      -0.12500000       0.12500000       0.00000000 </v>
   <v>       0.00000000       0.25000000       0.00000000 </v>
   <v>       0.50000000       0.25000000       0.00000000 </v>
   <v>      -0.37500000       0.25000000       0.00000000 </v>
   <v>      -0.25000000       0.25000000       0.00000000 </v>
   <v>      -0.12500000       0.25000000      -0.00000000 </v>
   <v>       0.00000000       0.37500000       0.00000000 </v>
   <v>      -0.25000000       0.37500000       0.00000000 </v>
   <v>      -0.12500000       0.37500000       0.00000000 </v>
   <v>       0.00000000       0.50000000       0.00000000 </v>
   <v>       0.37500000       0.12500000       0.12500000 </v>
   <v>       0.50000000       0.12500000       0.12500000 </v>
   <v>      -0.37500000       0.12500000       0.12500000 </v>
   <v>      -0.37500000       0.25000000       0.12500000 </v>
   <v>      -0.25000000       0.25000000       0.12500000 </v>
   <v>      -0.12500000       0.25000000       0.12500000 </v>
   <v>      -0.12500000       0.37500000       0.12500000 </v>
   <v>      -0.25000000       0.25000000       0.25000000 </v>
  </varray>
  <varray name="weights" >
   <v>       0.00195312 </v>
   <v>       0.01562500 </v>
   <v>       0.01562500 </v>
   <v>       0.01562500 </v>
   <v>       0.00781250 </v>
   <v>       0.01171875 </v>
   <v>       0.02343750 </v>
   <v>       0.04687500 </v>
   <v>       0.04687500 </v>
   <v>       0.04687500 </v>
   <v>       0.04687500 </v>
   <v>       0.04687500 </v>
   <v>       0.01171875 </v>
   <v>       0.02343750 </v>
   <v>       0.04687500 </v>
   <v>       0.04687500 </v>
   <v>       0.04687500 </v>
   <v>       0.01171875 </v>
   <v>       0.02343750 </v>
   <v>       0.04687500 </v>
   <v>       0.00585938 </v>
   <v>       0.04687500 </v>
   <v>       0.09375000 </v>
   <v>       0.04687500 </v>
   <v>       0.04687500 </v>
   <v>       0.09375000 </v>
   <v>       0.04687500 </v>
   <v>       0.02343750 </v>
   <v>       0.01171875 </v>
  </varray>
  <varray name="tetrahedronlist"  type="int" >
   <v type="int" >        4        1        2        2        2 </v>
   <v type="int" >        8        1        2        2        6 </v>
   <v type="int" >        8        2        2        6       12 </v>
   <v type="int" >        4        2        2        2        6 </v>
   <v type="int" >        8        2        2        6        7 </v>
   <v type="int" >        8        2        2        7       12 </v>
   <v type="int" >        8        2        3        6        7 </v>
   <v type="int" >        4        2        6        7        7 </v>
   <v type="int" >        8        3        6        7       12 </v>
   <v type="int" >        8        6        7       12       12 </v>
   <v type="int" >        4        6        7        7       12 </v>
   <v type="int" >        8        3        4        8       12 </v>
   <v type="int" >       16        3        7        8       12 </v>
   <v type="int" >       12        7        8       12       12 </v>
   <v type="int" >        8        4        8       11       12 </v>
   <v type="int" >       16        8       11       12       22 </v>
   <v type="int" >        8        8       12       12       22 </v>
   <v type="int" >        8        4        5        9       11 </v>
   <v type="int" >       16        4        8        9       11 </v>
   <v type="int" >        8        8        9       11       22 </v>
   <v type="int" >        8        5        9       10       11 </v>
   <v type="int" >       16        9       10       11       23 </v>
   <v type="int" >        8        9       11       22       23 </v>
   <v type="int" >       12        4        5       10       10 </v>
   <v type="int" >       16        5        9       10       10 </v>
   <v type="int" >        8        9       10       10       23 </v>
   <v type="int" >       12        4        9       10       10 </v>
   <v type="int" >       16        9       10       10       24 </v>
   <v type="int" >        8       10       10       23       24 </v>
   <v type="int" >        8        3        4        9       11 </v>
   <v type="int" >       16        4        9       10       11 </v>
   <v type="int" >        8        9       10       11       24 </v>
   <v type="int" >        8        3        8        9       11 </v>
   <v type="int" >       16        8        9       11       23 </v>
   <v type="int" >        8        9       11       23       24 </v>
   <v type="int" >        8        2        3        8       12 </v>
   <v type="int" >       16        3        8       11       12 </v>
   <v type="int" >        8        8       11       12       23 </v>
   <v type="int" >        8        2        7        8       12 </v>
   <v type="int" >       16        7        8       12       22 </v>
   <v type="int" >        8        8       12       22       23 </v>
   <v type="int" >        8        1        2        6        7 </v>
   <v type="int" >       16        2        6        7       12 </v>
   <v type="int" >        8        6        7       12       22 </v>
   <v type="int" >        8        2        6       12       12 </v>
   <v type="int" >        8        6       12       12       13 </v>
   <v type="int" >        8       12       12       13       17 </v>
   <v type="int" >       12        2        7       12       12 </v>
   <v type="int" >        8        7       12       12       22 </v>
   <v type="int" >        8       12       12       17       22 </v>
   <v type="int" >        4        2        3        7        7 </v>
   <v type="int" >       16        2        3        7       12 </v>
   <v type="int" >        8        3        7       12       22 </v>
   <v type="int" >        4        3        7        7       12 </v>
   <v type="int" >        8        3        7        8       22 </v>
   <v type="int" >        8        7        8        8       12 </v>
   <v type="int" >        4        3        8        8       12 </v>
   <v type="int" >        8        8        8       12       22 </v>
   <v type="int" >        4        8        8       11       12 </v>
   <v type="int" >        8        8        9       14       22 </v>
   <v type="int" >        8        8        8       14       22 </v>
   <v type="int" >        8        8       11       14       22 </v>
   <v type="int" >        8        9       14       22       23 </v>
   <v type="int" >        8       14       22       23       23 </v>
   <v type="int" >        8       11       14       22       23 </v>
   <v type="int" >       16        9       10       15       23 </v>
   <v type="int" >       16        9       14       15       23 </v>
   <v type="int" >       12       14       15       23       23 </v>
   <v type="int" >       24       10       15       23       24 </v>
   <v type="int" >       16       15       23       24       25 </v>
   <v type="int" >        8       15       23       23       25 </v>
   <v type="int" >        8       10       11       16       24 </v>
   <v type="int" >       16       10       15       16       24 </v>
   <v type="int" >        8       15       16       24       25 </v>
   <v type="int" >        8       11       16       23       24 </v>
   <v type="int" >       16       16       23       24       26 </v>
   <v type="int" >       16       16       24       25       26 </v>
   <v type="int" >        8       11       12       17       23 </v>
   <v type="int" >       16       11       16       17       23 </v>
   <v type="int" >        8       16       17       23       26 </v>
   <v type="int" >        8       12       17       22       23 </v>
   <v type="int" >       16       17       22       23       27 </v>
   <v type="int" >        8       17       23       26       27 </v>
   <v type="int" >        8        6       12       13       22 </v>
   <v type="int" >       16       12       13       17       22 </v>
   <v type="int" >        8       13       17       22       27 </v>
   <v type="int" >        8       12       13       17       17 </v>
   <v type="int" >        8       13       17       17       18 </v>
   <v type="int" >        8       17       17       18       20 </v>
   <v type="int" >        8       12       17       17       22 </v>
   <v type="int" >        8       17       17       22       27 </v>
   <v type="int" >        8       17       17       20       27 </v>
   <v type="int" >        8        3       11       12       22 </v>
   <v type="int" >       16       11       12       17       22 </v>
   <v type="int" >        8       11       17       22       27 </v>
   <v type="int" >        8        3        8       11       22 </v>
   <v type="int" >       16        8       11       22       23 </v>
   <v type="int" >        8       11       22       23       27 </v>
   <v type="int" >        4        3        4        8        8 </v>
   <v type="int" >       16        3        4        8       11 </v>
   <v type="int" >        8        4        8       11       23 </v>
   <v type="int" >        4        4        8        8       11 </v>
   <v type="int" >        8        4        8        9       23 </v>
   <v type="int" >        8        8        9       11       14 </v>
   <v type="int" >        4        4        9        9       11 </v>
   <v type="int" >        8        9       11       14       23 </v>
   <v type="int" >        4        9        9       10       11 </v>
   <v type="int" >        8       14       15       15       23 </v>
   <v type="int" >        8       15       15       23       25 </v>
   <v type="int" >        8       15       16       19       25 </v>
   <v type="int" >        8       15       15       19       25 </v>
   <v type="int" >        8       15       19       24       25 </v>
   <v type="int" >        8       16       19       25       26 </v>
   <v type="int" >        8       19       25       26       26 </v>
   <v type="int" >        8       19       24       25       26 </v>
   <v type="int" >        8       16       17       20       26 </v>
   <v type="int" >       16       16       19       20       26 </v>
   <v type="int" >       12       19       20       26       26 </v>
   <v type="int" >        8       17       20       26       27 </v>
   <v type="int" >       16       20       26       27       28 </v>
   <v type="int" >       16       20       26       26       28 </v>
   <v type="int" >        8       13       17       18       27 </v>
   <v type="int" >       16       17       18       20       27 </v>
   <v type="int" >        8       18       20       27       28 </v>
   <v type="int" >        8       17       18       20       20 </v>
   <v type="int" >        8       18       20       20       21 </v>
   <v type="int" >       12       20       20       20       21 </v>
   <v type="int" >        8       17       20       20       27 </v>
   <v type="int" >        8       20       20       27       28 </v>
   <v type="int" >        8       20       20       20       28 </v>
   <v type="int" >        8       11       16       17       27 </v>
   <v type="int" >       16       16       17       20       27 </v>
   <v type="int" >        8       16       20       27       28 </v>
   <v type="int" >        8       11       16       23       27 </v>
   <v type="int" >       16       16       23       26       27 </v>
   <v type="int" >        8       16       26       27       28 </v>
   <v type="int" >        8        4       10       11       23 </v>
   <v type="int" >       16       10       11       16       23 </v>
   <v type="int" >        8       10       16       23       26 </v>
   <v type="int" >        8        4        9       10       23 </v>
   <v type="int" >       16        9       10       23       24 </v>
   <v type="int" >        8       10       23       24       26 </v>
   <v type="int" >        4        4        5        9        9 </v>
   <v type="int" >       16        4        5        9       10 </v>
   <v type="int" >       16        5        9       10       24 </v>
   <v type="int" >       12        5        9        9       10 </v>
   <v type="int" >        8        9       10       10       15 </v>
   <v type="int" >        4        5       10       10       10 </v>
   <v type="int" >        8       10       10       15       24 </v>
   <v type="int" >        4        9       10       10       10 </v>
   <v type="int" >        8       15       16       19       24 </v>
   <v type="int" >       16        9       10       16       24 </v>
   <v type="int" >        8       16       19       24       26 </v>
   <v type="int" >        8        9       16       23       24 </v>
   <v type="int" >        8       19       20       20       26 </v>
   <v type="int" >        8       16       20       23       26 </v>
   <v type="int" >       16       20       20       26       28 </v>
   <v type="int" >        8       20       23       26       27 </v>
   <v type="int" >        8       18       20       21       28 </v>
   <v type="int" >       16       20       20       21       28 </v>
   <v type="int" >        8       20       21       27       28 </v>
   <v type="int" >        8       16       19       20       28 </v>
   <v type="int" >        8       19       20       20       28 </v>
   <v type="int" >        8       19       20       27       28 </v>
   <v type="int" >        8       16       19       26       28 </v>
   <v type="int" >        8       19       26       26       28 </v>
   <v type="int" >        8       19       26       27       28 </v>
   <v type="int" >        8       10       15       16       26 </v>
   <v type="int" >       16       15       16       19       26 </v>
   <v type="int" >       12       15       19       26       26 </v>
   <v type="int" >        8       10       15       24       26 </v>
   <v type="int" >       16       15       24       25       26 </v>
   <v type="int" >       16       15       25       26       26 </v>
   <v type="int" >       16        9       10       15       24 </v>
   <v type="int" >        8        9       15       24       25 </v>
   <v type="int" >        8        9       23       24       25 </v>
   <v type="int" >        8        9       10       11       16 </v>
   <v type="int" >        4        4        9       11       11 </v>
   <v type="int" >        8        9       11       16       23 </v>
   <v type="int" >        4        8        9       11       11 </v>
   <v type="int" >        8       16       17       20       23 </v>
   <v type="int" >        8        8       11       17       23 </v>
   <v type="int" >        8       17       20       23       27 </v>
   <v type="int" >        8        8       17       22       23 </v>
   <v type="int" >        8       18       20       21       27 </v>
   <v type="int" >        8       17       18       22       27 </v>
   <v type="int" >        8       16       19       20       27 </v>
   <v type="int" >        8       16       17       22       27 </v>
   <v type="int" >        8       16       19       26       27 </v>
   <v type="int" >        8       16       22       23       27 </v>
   <v type="int" >        8       15       15       19       26 </v>
   <v type="int" >        8       15       16       23       26 </v>
   <v type="int" >        8       15       15       25       26 </v>
   <v type="int" >       24       15       23       24       26 </v>
   <v type="int" >        8        9       14       15       25 </v>
   <v type="int" >        8       14       15       15       25 </v>
   <v type="int" >        8       14       15       24       25 </v>
   <v type="int" >        8        9       14       23       25 </v>
   <v type="int" >        8       14       23       23       25 </v>
   <v type="int" >        8       14       23       24       25 </v>
   <v type="int" >       16        8        9       14       23 </v>
   <v type="int" >       12        8       14       23       23 </v>
   <v type="int" >        8        8       22       23       23 </v>
   <v type="int" >        4        3        4       11       11 </v>
   <v type="int" >        4        3        8       11       11 </v>
   <v type="int" >        8        8       11       12       17 </v>
   <v type="int" >        4        3        8       12       12 </v>
   <v type="int" >        8        8       12       17       22 </v>
   <v type="int" >        8       13       17       18       22 </v>
   <v type="int" >        8        7       12       13       22 </v>
   <v type="int" >        8       11       16       17       22 </v>
   <v type="int" >        8        7       11       12       22 </v>
   <v type="int" >        8       11       16       22       23 </v>
   <v type="int" >        8        7        8       11       22 </v>
   <v type="int" >        8       10       15       16       23 </v>
   <v type="int" >        8        8       10       11       23 </v>
   <v type="int" >        8        8        9       10       23 </v>
   <v type="int" >        8        9       14       15       24 </v>
   <v type="int" >        8        9        9       10       24 </v>
   <v type="int" >        8        9       14       23       24 </v>
   <v type="int" >        8        8        8       14       23 </v>
   <v type="int" >        8        8        8       22       23 </v>
   <v type="int" >        8        7        8        8       22 </v>
   <v type="int" >        4        2        3       12       12 </v>
   <v type="int" >        8        6        7       12       13 </v>
   <v type="int" >        4        2        6        6        7 </v>
   <v type="int" >        8        3        7       11       12 </v>
   <v type="int" >        8        3        7        8       11 </v>
   <v type="int" >        8        4        8       10       11 </v>
   <v type="int" >        8        4        8        9       10 </v>
   <v type="int" >        4        1        2        6        6 </v>
   <v type="int" >        4        6       12       12       12 </v>
   <v type="int" >        4       12       12       12       13 </v>
   <v type="int" >        8       12       12       13       22 </v>
   <v type="int" >        8       11       12       13       22 </v>
   <v type="int" >        4       12       13       22       22 </v>
   <v type="int" >        8       11       13       17       22 </v>
   <v type="int" >        8       13       17       17       22 </v>
   <v type="int" >        4       13       17       22       22 </v>
   <v type="int" >        8       10       11       17       23 </v>
   <v type="int" >       16       11       17       22       23 </v>
   <v type="int" >        8       17       17       22       23 </v>
   <v type="int" >        8       10       16       17       23 </v>
   <v type="int" >       16       16       17       23       27 </v>
   <v type="int" >        8       17       17       23       27 </v>
   <v type="int" >       16       10       16       23       24 </v>
   <v type="int" >        8       16       23       24       27 </v>
   <v type="int" >        8        9       15       16       24 </v>
   <v type="int" >       16       15       16       24       26 </v>
   <v type="int" >        8       16       24       26       27 </v>
   <v type="int" >        8        8        9       15       23 </v>
   <v type="int" >       16        9       15       23       24 </v>
   <v type="int" >        8        8       14       15       23 </v>
   <v type="int" >       16       14       15       23       25 </v>
   <v type="int" >       16       15       23       25       26 </v>
   <v type="int" >        8        7        8       14       22 </v>
   <v type="int" >       16        8       14       22       23 </v>
   <v type="int" >        8       14       22       23       25 </v>
   <v type="int" >        4       11       12       22       22 </v>
   <v type="int" >        4       11       17       22       22 </v>
   <v type="int" >        8       17       22       23       23 </v>
   <v type="int" >        4       11       17       23       23 </v>
   <v type="int" >        8       17       23       23       27 </v>
   <v type="int" >        4       16       17       23       23 </v>
   <v type="int" >        8       23       24       25       27 </v>
   <v type="int" >        8       23       23       25       27 </v>
   <v type="int" >        8       16       23       25       27 </v>
   <v type="int" >        8       24       25       26       27 </v>
   <v type="int" >        8       25       26       26       27 </v>
   <v type="int" >        8       16       25       26       27 </v>
   <v type="int" >        8       23       24       26       26 </v>
   <v type="int" >       16       24       25       26       26 </v>
   <v type="int" >       16       25       26       26       26 </v>
   <v type="int" >       16       23       25       26       26 </v>
   <v type="int" >       32       25       26       26       29 </v>
   <v type="int" >       24       26       26       26       29 </v>
   <v type="int" >        8       22       23       25       27 </v>
   <v type="int" >       16       23       25       26       27 </v>
   <v type="int" >        8       25       26       27       29 </v>
   <v type="int" >        8       22       23       23       27 </v>
   <v type="int" >        8       23       23       26       27 </v>
   <v type="int" >        8       23       23       25       26 </v>
   <v type="int" >        4       10       11       23       23 </v>
   <v type="int" >        4       10       16       23       23 </v>
   <v type="int" >        8       16       23       24       25 </v>
   <v type="int" >        4       10       16       24       24 </v>
   <v type="int" >        4       15       16       24       24 </v>
   <v type="int" >        8       15       24       26       26 </v>
   <v type="int" >        8       26       27       28       29 </v>
   <v type="int" >       16       26       26       28       29 </v>
   <v type="int" >       16       25       26       28       29 </v>
   <v type="int" >        8       23       26       26       27 </v>
   <v type="int" >        8       26       26       27       28 </v>
   <v type="int" >        8       26       26       26       28 </v>
   <v type="int" >       16       23       24       25       26 </v>
   <v type="int" >       16       24       25       26       29 </v>
   <v type="int" >        4        9       10       24       24 </v>
   <v type="int" >        4        9       15       24       24 </v>
   <v type="int" >        4        9       15       23       23 </v>
   <v type="int" >        8       25       26       27       28 </v>
   <v type="int" >        8       14       23       25       27 </v>
   <v type="int" >        8       25       25       26       29 </v>
   <v type="int" >        4        8        9       23       23 </v>
   <v type="int" >        8       14       22       23       27 </v>
   <v type="int" >        4        8       14       22       22 </v>
   <v type="int" >        8       24       25       25       26 </v>
   <v type="int" >        4        7        8       22       22 </v>
   <v type="int" >        4       13       17       17       17 </v>
   <v type="int" >        4       17       17       17       18 </v>
   <v type="int" >        8       17       17       18       27 </v>
   <v type="int" >        8       16       17       18       27 </v>
   <v type="int" >        4       17       18       27       27 </v>
   <v type="int" >        8       16       18       20       27 </v>
   <v type="int" >        8       18       20       20       27 </v>
   <v type="int" >        4       18       20       27       27 </v>
   <v type="int" >        8       15       16       20       26 </v>
   <v type="int" >       16       16       20       26       27 </v>
   <v type="int" >        8       20       20       26       27 </v>
   <v type="int" >        8       15       19       20       26 </v>
   <v type="int" >       16       19       20       26       28 </v>
   <v type="int" >        8       14       15       19       25 </v>
   <v type="int" >       16       15       19       25       26 </v>
   <v type="int" >        8       19       25       26       28 </v>
   <v type="int" >        4       16       17       27       27 </v>
   <v type="int" >        4       16       20       27       27 </v>
   <v type="int" >        8       20       26       26       27 </v>
   <v type="int" >        4       16       20       26       26 </v>
   <v type="int" >        8       19       26       28       29 </v>
   <v type="int" >        4       15       16       26       26 </v>
   <v type="int" >        8       19       25       26       29 </v>
   <v type="int" >        4       15       19       25       25 </v>
   <v type="int" >        4       14       15       25       25 </v>
   <v type="int" >        4       18       20       20       20 </v>
   <v type="int" >        8       19       20       21       28 </v>
   <v type="int" >        4       20       21       28       28 </v>
   <v type="int" >        4       19       20       28       28 </v>
  </varray>
  <i name="volumeweight">      0.00032552 </i>
 </kpoints>
 <parameters>
  <separator name="general" >
   <i type="string" name="SYSTEM">unknown system</i>
   <i type="logical" name="LCOMPAT"> F  </i>
  </separator>
  <separator name="electronic" >
   <i type="string" name="PREC">accura</i>
   <i name="ENMAX">    520.00000000</i>
   <i name="ENAUG">    322.06900000</i>
   <i name="EDIFF">      0.00010000</i>
   <i type="int" name="IALGO">    38</i>
   <i type="int" name="IWAVPR">    10</i>
   <i type="int" name="NBANDS">    32</i>
   <i name="NELECT">      8.00000000</i>
   <i type="int" name="TURBO">     0</i>
   <i type="int" name="IRESTART">     0</i>
   <i type="int" name="NREBOOT">     0</i>
   <i type="int" name="NMIN">     0</i>
   <i name="EREF">      0.00000000</i>
   <separator name="electronic smearing" >
    <i type="int" name="ISMEAR">    -5</i>
    <i name="SIGMA">      0.05000000</i>
    <i name="KSPACING">      0.50000000</i>
    <i type="logical" name="KGAMMA"> T  </i>
   </separator>
   <separator name="electronic projectors" >
    <i type="logical" name="LREAL"> T  </i>
    <v name="ROPT">     -0.00025000</v>
    <i type="int" name="LMAXPAW">  -100</i>
    <i type="int" name="LMAXMIX">     2</i>
    <i type="logical" name="NLSPLINE"> F  </i>
   </separator>
   <separator name="electronic startup" >
    <i type="int" name="ISTART">     0</i>
    <i type="int" name="ICHARG">     0</i>
    <i type="int" name="INIWAV">     1</i>
   </separator>
   <separator name="electronic spin" >
    <i type="int" name="ISPIN">     2</i>
    <i type="logical" name="LNONCOLLINEAR"> F  </i>
    <v name="MAGMOM">      0.00000000      0.00000000</v>
    <i name="NUPDOWN">     -1.00000000</i>
    <i type="logical" name="LSORBIT"> F  </i>
    <v name="SAXIS">      0.00000000      0.00000000      1.00000000</v>
    <i type="logical" name="LSPIRAL"> F  </i>
    <v name="QSPIRAL">      0.00000000      0.00000000      0.00000000</v>
    <i type="logical" name="LZEROZ"> F  </i>
   </separator>
   <separator name="electronic exchange-correlation" >
    <i type="logical" name="LASPH"> F  </i>
    <i type="logical" name="LMETAGGA"> F  </i>
   </separator>
   <separator name="electronic convergence" >
    <i type="int" name="NELM">   100</i>
    <i type="int" name="NELMDL">    -5</i>
    <i type="int" name="NELMIN">     2</i>
    <i name="ENINI">    520.00000000</i>
    <separator name="electronic convergence detail" >
     <i type="logical" name="LDIAG"> T  </i>
     <i type="logical" name="LSUBROT"> F  </i>
     <i name="WEIMIN">      0.00000000</i>
     <i name="EBREAK">      0.00000078</i>
     <i name="DEPER">      0.30000000</i>
     <i type="int" name="NRMM">     4</i>
     <i name="TIME">      0.40000000</i>
    </separator>
   </separator>
   <separator name="electronic mixer" >
    <i name="AMIX">      0.40000000</i>
    <i name="BMIX">      1.00000000</i>
    <i name="AMIN">      0.10000000</i>
    <i name="AMIX_MAG">      1.60000000</i>
    <i name="BMIX_MAG">      1.00000000</i>
    <separator name="electronic mixer details" >
     <i type="int" name="IMIX">     4</i>
     <i type="logical" name="MIXFIRST"> F  </i>
     <i type="int" name="MAXMIX">   -45</i>
     <i name="WC">    100.00000000</i>
     <i type="int" name="INIMIX">     1</i>
     <i type="int" name="MIXPRE">     1</i>
     <i type="int" name="MREMOVE">     5</i>
    </separator>
   </separator>
   <separator name="electronic dipolcorrection" >
    <i type="logical" name="LDIPOL"> F  </i>
    <i type="logical" name="LMONO"> F  </i>
    <i type="int" name="IDIPOL">     0</i>
    <i name="EPSILON">      1.00000000</i>
    <v name="DIPOL">   -100.00000000   -100.00000000   -100.00000000</v>
    <i name="EFIELD">      0.00000000</i>
   </separator>
  </separator>
  <separator name="grids" >
   <i type="int" name="NGX">    30</i>
   <i type="int" name="NGY">    30</i>
   <i type="int" name="NGZ">    30</i>
   <i type="int" name="NGXF">    60</i>
   <i type="int" name="NGYF">    60</i>
   <i type="int" name="NGZF">    60</i>
   <i type="logical" name="ADDGRID"> F  </i>
  </separator>
  <separator name="ionic" >
   <i type="int" name="NSW">     0</i>
   <i type="int" name="IBRION">    -1</i>
   <i type="int" name="ISIF">     3</i>
   <i name="PSTRESS">      0.00000000</i>
   <i name="EDIFFG">      0.00100000</i>
   <i type="int" name="NFREE">     0</i>
   <i name="POTIM">      0.50000000</i>
   <i name="SMASS">     -3.00000000</i>
   <i name="SCALEE">      1.00000000</i>
  </separator>
  <separator name="ionic md" >
   <i name="TEBEG">      0.00010000</i>
   <i name="TEEND">      0.00010000</i>
   <i type="int" name="NBLOCK">     1</i>
   <i type="int" name="KBLOCK">     1</i>
   <i type="int" name="NPACO">   256</i>
   <i name="APACO">     16.00000000</i>
  </separator>
  <separator name="symmetry" >
   <i type="int" name="ISYM">     2</i>
   <i name="SYMPREC">      0.00001000</i>
  </separator>
  <separator name="dos" >
   <i type="logical" name="LORBIT"> F  </i>
   <v name="RWIGS">     -1.00000000</v>
   <i type="int" name="NEDOS">   301</i>
   <i name="EMIN">     10.00000000</i>
   <i name="EMAX">    -10.00000000</i>
   <i name="EFERMI">      0.00000000</i>
  </separator>
  <separator name="writing" >
   <i type="int" name="NWRITE">     2</i>
   <i type="logical" name="LWAVE"> F  </i>
   <i type="logical" name="LCHARG"> T  </i>
   <i type="logical" name="LPARD"> F  </i>
   <i type="logical" name="LVTOT"> F  </i>
   <i type="logical" name="LVHAR"> T  </i>
   <i type="logical" name="LELF"> F  </i>
   <i type="logical" name="LOPTICS"> F  </i>
   <v name="STM">      0.00000000      0.00000000      0.00000000      0.00000000      0.00000000      0.00000000      0.00000000</v>
  </separator>
  <separator name="performance" >
   <i type="int" name="NPAR">    32</i>
   <i type="int" name="NSIM">     4</i>
   <i type="int" name="NBLK">    -1</i>
   <i type="logical" name="LPLANE"> T  </i>
   <i type="logical" name="LSCALAPACK"> F  </i>
   <i type="logical" name="LSCAAWARE"> F  </i>
   <i type="logical" name="LSCALU"> F  </i>
   <i type="logical" name="LASYNC"> F  </i>
   <i type="logical" name="LORBITALREAL"> F  </i>
  </separator>
  <separator name="miscellaneous" >
   <i type="int" name="IDIOT">     3</i>
   <i type="logical" name="LMUSIC"> F  </i>
   <v name="POMASS">     28.08500000</v>
   <v name="DARWINR">      0.00000000</v>
   <v name="DARWINV">      1.00000000</v>
   <i type="logical" name="LCORR"> T  </i>
  </separator>
  <i type="logical" name="GGA_COMPAT"> T  </i>
  <i type="logical" name="LBERRY"> F  </i>
  <i type="int" name="ICORELEVEL">     0</i>
  <i type="logical" name="LDAU"> F  </i>
  <i type="int" name="I_CONSTRAINED_M">     0</i>
  <separator name="electronic exchange-correlation" >
   <i type="string" name="GGA">--</i>
   <i type="int" name="VOSKOWN">     0</i>
   <i type="logical" name="LHFCALC"> F  </i>
   <i type="string" name="PRECFOCK"></i>
   <i type="logical" name="LSYMGRAD"> F  </i>
   <i type="logical" name="LHFONE"> F  </i>
   <i type="logical" name="LRHFCALC"> F  </i>
   <i type="logical" name="LTHOMAS"> F  </i>
   <i type="logical" name="LMODELHF"> F  </i>
   <i name="ENCUT4O">     -1.00000000</i>
   <i type="int" name="EXXOEP">     0</i>
   <i type="int" name="FOURORBIT">     0</i>
   <i name="AEXX">      0.00000000</i>
   <i name="HFALPHA">      0.00000000</i>
   <i name="MCALPHA">      0.00000000</i>
   <i name="ALDAX">      1.00000000</i>
   <i name="AGGAX">      1.00000000</i>
   <i name="ALDAC">      1.00000000</i>
   <i name="AGGAC">      1.00000000</i>
   <i type="int" name="NKREDX">     1</i>
   <i type="int" name="NKREDY">     1</i>
   <i type="int" name="NKREDZ">     1</i>
   <i type="logical" name="SHIFTRED"> F  </i>
   <i type="logical" name="ODDONLY"> F  </i>
   <i type="logical" name="EVENONLY"> F  </i>
   <i type="int" name="LMAXFOCK">     0</i>
   <i type="int" name="NMAXFOCKAE">     0</i>
   <i type="logical" name="LFOCKAEDFT"> F  </i>
   <i name="HFSCREEN">      0.00000000</i>
   <i name="HFSCREENC">      0.00000000</i>
   <i type="int" name="NBANDSGWLOW">     0</i>
  </separator>
  <separator name="vdW DFT" >
   <i type="logical" name="LUSE_VDW"> F  </i>
   <i name="Zab_VDW">     -0.84910000</i>
   <i name="PARAM1">      0.12340000</i>
   <i name="PARAM2">      1.00000000</i>
   <i name="PARAM3">      0.00000000</i>
  </separator>
  <separator name="model GW" >
   <i type="int" name="MODEL_GW">     0</i>
   <i name="MODEL_EPS0">     12.27133992</i>
   <i name="MODEL_ALPHA">      1.00000000</i>
  </separator>
  <separator name="linear response parameters" >
   <i type="logical" name="LEPSILON"> F  </i>
   <i type="logical" name="LRPA"> F  </i>
   <i type="logical" name="LNABLA"> F  </i>
   <i type="logical" name="LVEL"> F  </i>
   <i type="int" name="KINTER">     0</i>
   <i name="CSHIFT">      0.10000000</i>
   <i name="OMEGAMAX">     -1.00000000</i>
   <i name="DEG_THRESHOLD">      0.00200000</i>
  </separator>
  <separator name="orbital magnetization" >
   <i type="logical" name="NUCIND"> F  </i>
   <v name="MAGPOS">      0.00000000      0.00000000      0.00000000</v>
   <i type="logical" name="LNICSALL"> T  </i>
   <i type="logical" name="ORBITALMAG"> F  </i>
   <i type="logical" name="LMAGBLOCH"> F  </i>
   <i type="logical" name="LCHIMAG"> F  </i>
   <i type="logical" name="LGAUGE"> T  </i>
   <i type="int" name="MAGATOM">     0</i>
   <v name="MAGDIPOL">      0.00000000      0.00000000      0.00000000</v>
   <v name="AVECCONST">      0.00000000      0.00000000      0.00000000</v>
  </separator>
  <separator name="response functions" >
   <i type="logical" name="LADDER"> F  </i>
   <i type="logical" name="LFXC"> F  </i>
   <i type="logical" name="LHARTREE"> T  </i>
   <i type="int" name="IBSE">     0</i>
   <v type="int" name="KPOINT">    -1     0     0     0</v>
   <i type="logical" name="LTCTE"> F  </i>
   <i type="logical" name="LTETE"> F  </i>
   <i type="logical" name="LTRIPLET"> F  </i>
   <i type="logical" name="LFXCEPS"> F  </i>
   <i type="logical" name="LFXHEG"> F  </i>
   <i type="int" name="NATURALO">     0</i>
   <i type="logical" name="L2ORDER"> F  </i>
   <i type="logical" name="LUSEW"> F  </i>
   <i name="ENCUTGW">     -2.00000000</i>
   <i name="ENCUTGWSOFT">     -2.00000000</i>
   <i name="ENCUTLF">     -1.00000000</i>
   <i type="int" name="LMAXMP2">    -1</i>
   <i name="SCISSOR">      0.00000000</i>
   <i type="int" name="NOMEGA">     0</i>
   <i type="int" name="NOMEGAR">     0</i>
   <i type="int" name="NBANDSGW">    -1</i>
   <i type="int" name="NBANDSO">    -1</i>
   <i type="int" name="NBANDSV">    -1</i>
   <i type="int" name="NELM">   100</i>
   <i type="int" name="NELMHF">     1</i>
   <i type="int" name="DIM">     3</i>
   <i type="int" name="ANTIRES">     0</i>
   <i name="OMEGAMAX">    -30.00000000</i>
   <i name="OMEGAMIN">    -30.00000000</i>
   <i name="OMEGATL">   -200.00000000</i>
   <i type="int" name="OMEGAGRID">     0</i>
   <i name="CSHIFT">     -0.10000000</i>
   <i type="logical" name="SELFENERGY"> F  </i>
   <i type="logical" name="LSPECTRAL"> F  </i>
   <i type="logical" name="LSPECTRALGW"> F  </i>
   <i type="logical" name="LSINGLES"> F  </i>
   <i type="logical" name="LFERMIGW"> F  </i>
   <i type="logical" name="ODDONLYGW"> F  </i>
   <i type="logical" name="EVENONLYGW"> F  </i>
   <i type="int" name="NKREDLFX">     1</i>
   <i type="int" name="NKREDLFY">     1</i>
   <i type="int" name="NKREDLFZ">     1</i>
   <i type="int" name="MAXMEM">  1800</i>
   <i type="int" name="TELESCOPE">     0</i>
   <i type="int" name="TAUPAR">     1</i>
   <i type="int" name="OMEGAPAR">    -1</i>
   <i name="LAMBDA">      1.00000000</i>
  </separator>
  <separator name="External order field" >
   <i name="OFIELD_KAPPA">      0.00000000</i>
   <v name="OFIELD_K">      0.00000000      0.00000000      0.00000000</v>
   <i name="OFIELD_Q6_NEAR">      0.00000000</i>
   <i name="OFIELD_Q6_FAR">      0.00000000</i>
   <i name="OFIELD_A">      0.00000000</i>
  </separator>
 </parameters>
 <atominfo>
  <atoms>       2 </atoms>
  <types>       1 </types>
  <array name="atoms" >
   <dimension dim="1">ion</dimension>
   <field type="string">element</field>
   <field type="int">atomtype</field>
   <set>
    <rc><c>Si</c><c>   1</c></rc>
    <rc><c>Si</c><c>   1</c></rc>
   </set>
  </array>
  <array name="atomtypes" >
   <dimension dim="1">type</dimension>
   <field type="int">atomspertype</field>
   <field type="string">element</field>
   <field>mass</field>
   <field>valence</field>
   <field type="string">pseudopotential</field>
   <set>
    <rc><c>   2</c><c>Si</c><c>     28.08500000</c><c>      4.00000000</c><c> PAW_PBE Si 05Jan2001                   </c></rc>
   </set>
  </array>
 </atominfo>
 <structure name="initialpos" >
  <crystal>
   <varray name="basis" >
    <v>       3.86748400       0.00000000       0.00000000 </v>
    <v>       1.93374200       3.34934000       0.00000000 </v>
    <v>       0.00000000      -2.23289100       3.15778800 </v>
   </varray>
   <i name="volume">     40.90446642 </i>
   <varray name="rec_basis" >
    <v>       0.25856603      -0.14928314      -0.10555901 </v>
    <v>       0.00000000       0.29856628       0.21111803 </v>
    <v>       0.00000000       0.00000000       0.31667737 </v>
   </varray>
  </crystal>
  <varray name="positions" >
   <v>       0.00000000       0.00000000       0.00000000 </v>
   <v>       0.75000000       0.50000000       0.75000000 </v>
  </varray>
 </structure>
 <calculation>
  <scstep>
   <time name="dav">    2.93    2.94</time>
   <time name="total">    3.09    3.10</time>
   <energy>
    <i name="alphaZ">      3.29187312 </i>
    <i name="ewald">   -226.91498689 </i>
    <i name="hartreedc">     -6.83871152 </i>
    <i name="XCdc">    -19.23240768 </i>
    <i name="pawpsdc">     98.36461751 </i>
    <i name="pawaedc">    -61.73254128 </i>
    <i name="eentropy">      0.00000000 </i>
    <i name="bandstr">     -5.97486699 </i>
    <i name="atom">    206.13270273 </i>
    <i name="e_fr_energy">    -12.90432099 </i>
    <i name="e_wo_entrp">    -12.90432099 </i>
    <i name="e_0_energy">    -12.90432099 </i>
   </energy>
  </scstep>
  <scstep>
   <time name="dav">    4.35    4.35</time>
   <time name="total">    4.36    4.37</time>
   <energy>
    <i name="e_fr_energy">    -19.10318866 </i>
    <i name="e_wo_entrp">    -19.10318866 </i>
    <i name="e_0_energy">    -19.10318866 </i>
   </energy>
  </scstep>
  <scstep>
   <time name="dav">    2.96    2.96</time>
   <time name="total">    2.97    2.97</time>
   <energy>
    <i name="e_fr_energy">    -19.11546243 </i>
    <i name="e_wo_entrp">    -19.11546243 </i>
    <i name="e_0_energy">    -19.11546243 </i>
   </energy>
  </scstep>
  <scstep>
   <time name="dav">    6.08    6.08</time>
   <time name="total">    6.09    6.09</time>
   <energy>
    <i name="e_fr_energy">    -19.11547588 </i>
    <i name="e_wo_entrp">    -19.11547588 </i>
    <i name="e_0_energy">    -19.11547588 </i>
   </energy>
  </scstep>
  <scstep>
   <time name="dav">    2.98    2.98</time>
   <time name="total">    3.06    3.06</time>
   <energy>
    <i name="e_fr_energy">    -19.11547588 </i>
    <i name="e_wo_entrp">    -19.11547588 </i>
    <i name="e_0_energy">    -19.11547588 </i>
   </energy>
  </scstep>
  <scstep>
   <time name="dav">    4.16    4.16</time>
   <time name="total">    4.37    4.37</time>
   <energy>
    <i name="e_fr_energy">    -13.39549766 </i>
    <i name="e_wo_entrp">    -13.39549766 </i>
    <i name="e_0_energy">    -13.39549766 </i>
   </energy>
  </scstep>
  <scstep>
   <time name="dav">    4.32    4.32</time>
   <time name="total">    4.53    4.53</time>
   <energy>
    <i name="e_fr_energy">    -10.73624450 </i>
    <i name="e_wo_entrp">    -10.73624450 </i>
    <i name="e_0_energy">    -10.73624450 </i>
   </energy>
  </scstep>
  <scstep>
   <time name="dav">    3.05    3.05</time>
   <time name="total">    3.30    3.32</time>
   <energy>
    <i name="e_fr_energy">    -10.82873763 </i>
    <i name="e_wo_entrp">    -10.82873763 </i>
    <i name="e_0_energy">    -10.82873763 </i>
   </energy>
  </scstep>
  <scstep>
   <time name="dav">    3.58    3.58</time>
   <time name="total">    3.79    3.79</time>
   <energy>
    <i name="e_fr_energy">    -10.84336924 </i>
    <i name="e_wo_entrp">    -10.84336924 </i>
    <i name="e_0_energy">    -10.84336924 </i>
   </energy>
  </scstep>
  <scstep>
   <time name="dav">    3.22    3.22</time>
   <time name="total">    3.43    3.43</time>
   <energy>
    <i name="e_fr_energy">    -10.84672291 </i>
    <i name="e_wo_entrp">    -10.84672291 </i>
    <i name="e_0_energy">    -10.84672291 </i>
   </energy>
  </scstep>
  <scstep>
   <time name="dav">    4.32    4.32</time>
   <time name="total">    4.46    4.47</time>
   <energy>
    <i name="alphaZ">      3.29187312 </i>
    <i name="ewald">   -226.91498689 </i>
    <i name="hartreedc">    -15.12149060 </i>
    <i name="XCdc">    -18.06282671 </i>
    <i name="pawpsdc">     73.36396553 </i>
    <i name="pawaedc">    -38.37751226 </i>
    <i name="eentropy">      0.00000000 </i>
    <i name="bandstr">      4.84163736 </i>
    <i name="atom">    206.13270273 </i>
    <i name="e_fr_energy">    -10.84663771 </i>
    <i name="e_wo_entrp">    -10.84663771 </i>
    <i name="e_0_energy">    -10.84663771 </i>
   </energy>
  </scstep>
  <structure>
   <crystal>
    <varray name="basis" >
     <v>       3.86748400       0.00000000       0.00000000 </v>
     <v>       1.93374200       3.34934000       0.00000000 </v>
     <v>       0.00000000      -2.23289100       3.15778800 </v>
    </varray>
    <i name="volume">     40.90446642 </i>
    <varray name="rec_basis" >
     <v>       0.25856603      -0.14928314      -0.10555901 </v>
     <v>       0.00000000       0.29856628       0.21111803 </v>
     <v>       0.00000000       0.00000000       0.31667737 </v>
    </varray>
   </crystal>
   <varray name="positions" >
    <v>       0.00000000       0.00000000       0.00000000 </v>
    <v>       0.75000000       0.50000000       0.75000000 </v>
   </varray>
  </structure>
  <varray name="forces" >
   <v>      -0.00000000      -0.00000000      -0.00000000 </v>
   <v>       0.00000000       0.00000000       0.00000000 </v>
  </varray>
  <varray name="stress" >
   <v>       2.11953574       0.00000000       0.00000000 </v>
   <v>       0.00000000       2.11953651       0.00000157 </v>
   <v>       0.00000000       0.00000157       2.11953646 </v>
  </varray>
  <energy>
   <i name="e_fr_energy">    -10.84663771 </i>
   <i name="e_wo_entrp">    -10.84663771 </i>
   <i name="e_0_energy">      0.00000000 </i>
  </energy>
  <time name="totalsc">   44.74   44.84</time>
  <eigenvalues>
   <array>
    <dimension dim="1">band</dimension>
    <dimension dim="2">kpoint</dimension>
    <dimension dim="3">spin</dimension>
    <field>eigene</field>
    <field>occ</field>
    <set>
     <set comment="spin 1">
      <set comment="kpoint 1">
       <r>   -6.2075    1.0000 </r>
       <r>    5.6029    1.0000 </r>
       <r>    5.6029    1.0000 </r>
       <r>    5.6029    1.0000 </r>
       <r>    8.1643    0.0000 </r>
       <r>    8.1643    0.0000 </r>
       <r>    8.1643    0.0000 </r>
       <r>    8.7302    0.0000 </r>
       <r>   13.3174    0.0000 </r>
       <r>   13.3174    0.0000 </r>
       <r>   13.4760    0.0000 </r>
       <r>   16.7894    0.0000 </r>
       <r>   16.7895    0.0000 </r>
       <r>   16.7895    0.0000 </r>
       <r>   20.8705    0.0000 </r>
       <r>   28.4532    0.0000 </r>
       <r>   28.4532    0.0000 </r>
       <r>   28.4532    0.0000 </r>
       <r>   29.5352    0.0000 </r>
       <r>   29.5353    0.0000 </r>
       <r>   30.9752    0.0000 </r>
       <r>   30.9752    0.0000 </r>
       <r>   30.9752    0.0000 </r>
       <r>   34.5148    0.0000 </r>
       <r>   34.5148    0.0000 </r>
       <r>   34.5149    0.0000 </r>
       <r>   40.0898    0.0000 </r>
       <r>   40.0899    0.0000 </r>
       <r>   40.0899    0.0000 </r>
       <r>   43.3885    0.0000 </r>
       <r>   43.8669    0.0000 </r>
       <r>   43.8669    0.0000 </r>
      </set>
      <set comment="kpoint 2">
       <r>   -6.0072    1.0000 </r>
       <r>    4.0130    1.0000 </r>
       <r>    5.3211    1.0000 </r>
       <r>    5.3211    1.0000 </r>
       <r>    8.0471    0.0000 </r>
       <r>    8.5791    0.0000 </r>
       <r>    8.5792    0.0000 </r>
       <r>   10.1312    0.0000 </r>
       <r>   12.8448    0.0000 </r>
       <r>   12.8448    0.0000 </r>
       <r>   14.2522    0.0000 </r>
       <r>   16.2342    0.0000 </r>
       <r>   17.9341    0.0000 </r>
       <r>   17.9341    0.0000 </r>
       <r>   22.0859    0.0000 </r>
       <r>   26.4466    0.0000 </r>
       <r>   26.4466    0.0000 </r>
       <r>   26.7238    0.0000 </r>
       <r>   29.1946    0.0000 </r>
       <r>   29.1946    0.0000 </r>
       <r>   31.5159    0.0000 </r>
       <r>   31.5160    0.0000 </r>
       <r>   32.4155    0.0000 </r>
       <r>   34.6967    0.0000 </r>
       <r>   36.6568    0.0000 </r>
       <r>   36.6568    0.0000 </r>
       <r>   37.7325    0.0000 </r>
       <r>   39.5672    0.0000 </r>
       <r>   39.5673    0.0000 </r>
       <r>   41.9840    0.0000 </r>
       <r>   41.9840    0.0000 </r>
       <r>   43.8177    0.0000 </r>
      </set>
      <set comment="kpoint 3">
       <r>   -5.4230    1.0000 </r>
       <r>    1.7187    1.0000 </r>
       <r>    4.8590    1.0000 </r>
       <r>    4.8590    1.0000 </r>
       <r>    7.5623    0.0000 </r>
       <r>    9.0970    0.0000 </r>
       <r>    9.0970    0.0000 </r>
       <r>   12.3498    0.0000 </r>
       <r>   12.7952    0.0000 </r>
       <r>   12.7952    0.0000 </r>
       <r>   14.5323    0.0000 </r>
       <r>   17.3118    0.0000 </r>
       <r>   20.1197    0.0000 </r>
       <r>   20.1197    0.0000 </r>
       <r>   23.2817    0.0000 </r>
       <r>   23.2817    0.0000 </r>
       <r>   23.3628    0.0000 </r>
       <r>   25.4694    0.0000 </r>
       <r>   29.3693    0.0000 </r>
       <r>   29.3694    0.0000 </r>
       <r>   31.8700    0.0000 </r>
       <r>   31.8701    0.0000 </r>
       <r>   33.1259    0.0000 </r>
       <r>   34.6890    0.0000 </r>
       <r>   35.2068    0.0000 </r>
       <r>   37.1002    0.0000 </r>
       <r>   37.1002    0.0000 </r>
       <r>   38.7335    0.0000 </r>
       <r>   38.7335    0.0000 </r>
       <r>   39.6357    0.0000 </r>
       <r>   39.6357    0.0000 </r>
       <r>   43.3809    0.0000 </r>
      </set>
      <set comment="kpoint 4">
       <r>   -4.5491    1.0000 </r>
       <r>   -0.2646    1.0000 </r>
       <r>    4.5365    1.0000 </r>
       <r>    4.5365    1.0000 </r>
       <r>    7.1973    0.0000 </r>
       <r>    9.0609    0.0000 </r>
       <r>    9.0609    0.0000 </r>
       <r>   13.4413    0.0000 </r>
       <r>   14.1458    0.0000 </r>
       <r>   14.1459    0.0000 </r>
       <r>   15.1098    0.0000 </r>
       <r>   19.2250    0.0000 </r>
       <r>   19.2250    0.0000 </r>
       <r>   19.4582    0.0000 </r>
       <r>   22.0615    0.0000 </r>
       <r>   23.9763    0.0000 </r>
       <r>   23.9764    0.0000 </r>
       <r>   28.3590    0.0000 </r>
       <r>   29.1928    0.0000 </r>
       <r>   29.2042    0.0000 </r>
       <r>   29.2042    0.0000 </r>
       <r>   32.0562    0.0000 </r>
       <r>   32.0562    0.0000 </r>
       <r>   33.6341    0.0000 </r>
       <r>   33.6342    0.0000 </r>
       <r>   35.1046    0.0000 </r>
       <r>   35.8830    0.0000 </r>
       <r>   37.8268    0.0000 </r>
       <r>   37.8268    0.0000 </r>
       <r>   38.7710    0.0000 </r>
       <r>   38.7710    0.0000 </r>
       <r>   39.9211    0.0000 </r>
      </set>
      <set comment="kpoint 5">
       <r>   -3.9305    1.0000 </r>
       <r>   -1.2618    1.0000 </r>
       <r>    4.4259    1.0000 </r>
       <r>    4.4260    1.0000 </r>
       <r>    7.0690    0.0000 </r>
       <r>    8.9576    0.0000 </r>
       <r>    8.9577    0.0000 </r>
       <r>   13.3064    0.0000 </r>
       <r>   16.1017    0.0000 </r>
       <r>   16.1017    0.0000 </r>
       <r>   16.7779    0.0000 </r>
       <r>   16.8235    0.0000 </r>
       <r>   16.8235    0.0000 </r>
       <r>   18.3364    0.0000 </r>
       <r>   24.7362    0.0000 </r>
       <r>   25.3500    0.0000 </r>
       <r>   27.0490    0.0000 </r>
       <r>   27.0490    0.0000 </r>
       <r>   27.1699    0.0000 </r>
       <r>   27.1699    0.0000 </r>
       <r>   31.0304    0.0000 </r>
       <r>   31.7549    0.0000 </r>
       <r>   31.7549    0.0000 </r>
       <r>   32.6678    0.0000 </r>
       <r>   32.6678    0.0000 </r>
       <r>   33.6537    0.0000 </r>
       <r>   36.2564    0.0000 </r>
       <r>   37.6143    0.0000 </r>
       <r>   37.6143    0.0000 </r>
       <r>   38.1277    0.0000 </r>
       <r>   38.1277    0.0000 </r>
       <r>   39.0509    0.0000 </r>
      </set>
      <set comment="kpoint 6">
       <r>   -5.9396    1.0000 </r>
       <r>    4.2502    1.0000 </r>
       <r>    4.8180    1.0000 </r>
       <r>    4.8180    1.0000 </r>
       <r>    7.6226    0.0000 </r>
       <r>    9.2774    0.0000 </r>
       <r>    9.2774    0.0000 </r>
       <r>    9.8189    0.0000 </r>
       <r>   12.0914    0.0000 </r>
       <r>   13.6156    0.0000 </r>
       <r>   14.5464    0.0000 </r>
       <r>   17.2559    0.0000 </r>
       <r>   17.2559    0.0000 </r>
       <r>   17.7313    0.0000 </r>
       <r>   22.6634    0.0000 </r>
       <r>   25.9639    0.0000 </r>
       <r>   25.9639    0.0000 </r>
       <r>   27.2008    0.0000 </r>
       <r>   27.9675    0.0000 </r>
       <r>   28.8133    0.0000 </r>
       <r>   31.7593    0.0000 </r>
       <r>   32.1062    0.0000 </r>
       <r>   32.1062    0.0000 </r>
       <r>   36.4564    0.0000 </r>
       <r>   36.4565    0.0000 </r>
       <r>   36.9636    0.0000 </r>
       <r>   38.3505    0.0000 </r>
       <r>   38.3505    0.0000 </r>
       <r>   38.4627    0.0000 </r>
       <r>   40.6155    0.0000 </r>
       <r>   42.3084    0.0000 </r>
       <r>   43.2775    0.0000 </r>
      </set>
      <set comment="kpoint 7">
       <r>   -5.6772    1.0000 </r>
       <r>    2.9292    1.0000 </r>
       <r>    4.0165    1.0000 </r>
       <r>    5.3135    1.0000 </r>
       <r>    8.5729    0.0000 </r>
       <r>    8.7164    0.0000 </r>
       <r>    8.9349    0.0000 </r>
       <r>   11.0319    0.0000 </r>
       <r>   11.9647    0.0000 </r>
       <r>   13.5712    0.0000 </r>
       <r>   15.2551    0.0000 </r>
       <r>   16.7190    0.0000 </r>
       <r>   17.8851    0.0000 </r>
       <r>   19.9644    0.0000 </r>
       <r>   23.1193    0.0000 </r>
       <r>   23.5639    0.0000 </r>
       <r>   26.3136    0.0000 </r>
       <r>   26.5547    0.0000 </r>
       <r>   27.0562    0.0000 </r>
       <r>   28.3883    0.0000 </r>
       <r>   31.7660    0.0000 </r>
       <r>   31.9902    0.0000 </r>
       <r>   33.9986    0.0000 </r>
       <r>   35.7090    0.0000 </r>
       <r>   35.9842    0.0000 </r>
       <r>   37.2794    0.0000 </r>
       <r>   37.4924    0.0000 </r>
       <r>   38.9905    0.0000 </r>
       <r>   39.0970    0.0000 </r>
       <r>   39.6254    0.0000 </r>
       <r>   41.1615    0.0000 </r>
       <r>   41.1628    0.0000 </r>
      </set>
      <set comment="kpoint 8">
       <r>   -4.9815    1.0000 </r>
       <r>    1.0235    1.0000 </r>
       <r>    3.3392    1.0000 </r>
       <r>    4.8426    1.0000 </r>
       <r>    8.2596    0.0000 </r>
       <r>    9.2688    0.0000 </r>
       <r>    9.4406    0.0000 </r>
       <r>   11.8143    0.0000 </r>
       <r>   12.0841    0.0000 </r>
       <r>   15.3466    0.0000 </r>
       <r>   15.5622    0.0000 </r>
       <r>   17.9036    0.0000 </r>
       <r>   19.4562    0.0000 </r>
       <r>   20.9005    0.0000 </r>
       <r>   21.8307    0.0000 </r>
       <r>   23.4060    0.0000 </r>
       <r>   24.2563    0.0000 </r>
       <r>   27.1425    0.0000 </r>
       <r>   27.3415    0.0000 </r>
       <r>   28.2433    0.0000 </r>
       <r>   31.3415    0.0000 </r>
       <r>   31.8110    0.0000 </r>
       <r>   32.6299    0.0000 </r>
       <r>   34.7646    0.0000 </r>
       <r>   34.9308    0.0000 </r>
       <r>   36.1914    0.0000 </r>
       <r>   36.3716    0.0000 </r>
       <r>   37.4378    0.0000 </r>
       <r>   38.4060    0.0000 </r>
       <r>   39.4675    0.0000 </r>
       <r>   39.7750    0.0000 </r>
       <r>   42.2779    0.0000 </r>
      </set>
      <set comment="kpoint 9">
       <r>   -4.0805    1.0000 </r>
       <r>   -0.6907    1.0000 </r>
       <r>    3.1847    1.0000 </r>
       <r>    4.3620    1.0000 </r>
       <r>    7.9167    0.0000 </r>
       <r>    9.2134    0.0000 </r>
       <r>    9.4717    0.0000 </r>
       <r>   13.4305    0.0000 </r>
       <r>   13.6653    0.0000 </r>
       <r>   14.7378    0.0000 </r>
       <r>   16.6806    0.0000 </r>
       <r>   17.8828    0.0000 </r>
       <r>   19.7305    0.0000 </r>
       <r>   20.0820    0.0000 </r>
       <r>   22.2946    0.0000 </r>
       <r>   24.0605    0.0000 </r>
       <r>   25.8986    0.0000 </r>
       <r>   27.5053    0.0000 </r>
       <r>   27.7673    0.0000 </r>
       <r>   27.8949    0.0000 </r>
       <r>   30.0549    0.0000 </r>
       <r>   30.4765    0.0000 </r>
       <r>   32.6960    0.0000 </r>
       <r>   32.7773    0.0000 </r>
       <r>   33.1494    0.0000 </r>
       <r>   34.4611    0.0000 </r>
       <r>   35.5633    0.0000 </r>
       <r>   36.5668    0.0000 </r>
       <r>   38.4910    0.0000 </r>
       <r>   38.7872    0.0000 </r>
       <r>   38.8522    0.0000 </r>
       <r>   40.1645    0.0000 </r>
      </set>
      <set comment="kpoint 10">
       <r>   -3.8434    1.0000 </r>
       <r>   -1.0516    1.0000 </r>
       <r>    3.3596    1.0000 </r>
       <r>    4.0732    1.0000 </r>
       <r>    7.7678    0.0000 </r>
       <r>    9.0942    0.0000 </r>
       <r>    9.7009    0.0000 </r>
       <r>   12.9089    0.0000 </r>
       <r>   14.5473    0.0000 </r>
       <r>   16.0226    0.0000 </r>
       <r>   17.0023    0.0000 </r>
       <r>   17.1426    0.0000 </r>
       <r>   17.9234    0.0000 </r>
       <r>   20.4318    0.0000 </r>
       <r>   23.7035    0.0000 </r>
       <r>   25.0685    0.0000 </r>
       <r>   25.6922    0.0000 </r>
       <r>   26.4538    0.0000 </r>
       <r>   27.2953    0.0000 </r>
       <r>   27.6674    0.0000 </r>
       <r>   30.0241    0.0000 </r>
       <r>   31.3230    0.0000 </r>
       <r>   31.7138    0.0000 </r>
       <r>   32.8120    0.0000 </r>
       <r>   33.3732    0.0000 </r>
       <r>   34.9487    0.0000 </r>
       <r>   35.2350    0.0000 </r>
       <r>   35.6156    0.0000 </r>
       <r>   38.0381    0.0000 </r>
       <r>   38.3720    0.0000 </r>
       <r>   39.0295    0.0000 </r>
       <r>   40.1247    0.0000 </r>
      </set>
      <set comment="kpoint 11">
       <r>   -4.6817    1.0000 </r>
       <r>    0.3777    1.0000 </r>
       <r>    3.7963    1.0000 </r>
       <r>    4.0514    1.0000 </r>
       <r>    7.8332    0.0000 </r>
       <r>    9.1977    0.0000 </r>
       <r>   10.0481    0.0000 </r>
       <r>   11.0450    0.0000 </r>
       <r>   14.8762    0.0000 </r>
       <r>   14.8850    0.0000 </r>
       <r>   15.3897    0.0000 </r>
       <r>   18.8753    0.0000 </r>
       <r>   18.8813    0.0000 </r>
       <r>   20.6422    0.0000 </r>
       <r>   22.1426    0.0000 </r>
       <r>   23.0458    0.0000 </r>
       <r>   24.0121    0.0000 </r>
       <r>   27.2386    0.0000 </r>
       <r>   27.9542    0.0000 </r>
       <r>   28.9286    0.0000 </r>
       <r>   30.0893    0.0000 </r>
       <r>   30.8463    0.0000 </r>
       <r>   32.7521    0.0000 </r>
       <r>   34.3443    0.0000 </r>
       <r>   35.4071    0.0000 </r>
       <r>   35.5845    0.0000 </r>
       <r>   35.7537    0.0000 </r>
       <r>   36.9421    0.0000 </r>
       <r>   37.9665    0.0000 </r>
       <r>   38.4685    0.0000 </r>
       <r>   40.0617    0.0000 </r>
       <r>   41.4454    0.0000 </r>
      </set>
      <set comment="kpoint 12">
       <r>   -5.4798    1.0000 </r>
       <r>    2.3982    1.0000 </r>
       <r>    4.3162    1.0000 </r>
       <r>    4.3792    1.0000 </r>
       <r>    7.7511    0.0000 </r>
       <r>    9.2287    0.0000 </r>
       <r>   10.0328    0.0000 </r>
       <r>   10.3448    0.0000 </r>
       <r>   12.9619    0.0000 </r>
       <r>   13.7764    0.0000 </r>
       <r>   15.5364    0.0000 </r>
       <r>   17.0999    0.0000 </r>
       <r>   18.6478    0.0000 </r>
       <r>   19.8940    0.0000 </r>
       <r>   23.0148    0.0000 </r>
       <r>   23.4743    0.0000 </r>
       <r>   24.6741    0.0000 </r>
       <r>   26.9100    0.0000 </r>
       <r>   26.9321    0.0000 </r>
       <r>   28.3749    0.0000 </r>
       <r>   31.5186    0.0000 </r>
       <r>   32.4902    0.0000 </r>
       <r>   33.5110    0.0000 </r>
       <r>   35.0924    0.0000 </r>
       <r>   36.6860    0.0000 </r>
       <r>   36.9969    0.0000 </r>
       <r>   37.3453    0.0000 </r>
       <r>   38.1846    0.0000 </r>
       <r>   38.7270    0.0000 </r>
       <r>   39.4299    0.0000 </r>
       <r>   40.9824    0.0000 </r>
       <r>   41.0117    0.0000 </r>
      </set>
      <set comment="kpoint 13">
       <r>   -5.1455    1.0000 </r>
       <r>    2.0845    1.0000 </r>
       <r>    3.7570    1.0000 </r>
       <r>    3.7570    1.0000 </r>
       <r>    6.7583    0.0000 </r>
       <r>    8.7425    0.0000 </r>
       <r>   11.2938    0.0000 </r>
       <r>   11.2938    0.0000 </r>
       <r>   13.4674    0.0000 </r>
       <r>   14.5084    0.0000 </r>
       <r>   16.8994    0.0000 </r>
       <r>   18.5245    0.0000 </r>
       <r>   18.5245    0.0000 </r>
       <r>   19.2308    0.0000 </r>
       <r>   22.8196    0.0000 </r>
       <r>   22.8196    0.0000 </r>
       <r>   23.7757    0.0000 </r>
       <r>   25.6598    0.0000 </r>
       <r>   26.3298    0.0000 </r>
       <r>   30.2602    0.0000 </r>
       <r>   31.5783    0.0000 </r>
       <r>   32.5595    0.0000 </r>
       <r>   32.5595    0.0000 </r>
       <r>   34.7602    0.0000 </r>
       <r>   34.7602    0.0000 </r>
       <r>   34.9292    0.0000 </r>
       <r>   35.5982    0.0000 </r>
       <r>   39.9001    0.0000 </r>
       <r>   40.3592    0.0000 </r>
       <r>   40.5752    0.0000 </r>
       <r>   40.5752    0.0000 </r>
       <r>   42.2495    0.0000 </r>
      </set>
      <set comment="kpoint 14">
       <r>   -4.2046    1.0000 </r>
       <r>    0.1651    1.0000 </r>
       <r>    1.9381    1.0000 </r>
       <r>    4.3025    1.0000 </r>
       <r>    8.0440    0.0000 </r>
       <r>   10.3553    0.0000 </r>
       <r>   10.6857    0.0000 </r>
       <r>   11.6442    0.0000 </r>
       <r>   12.0616    0.0000 </r>
       <r>   15.1248    0.0000 </r>
       <r>   18.0959    0.0000 </r>
       <r>   18.6318    0.0000 </r>
       <r>   18.9470    0.0000 </r>
       <r>   22.1074    0.0000 </r>
       <r>   22.4871    0.0000 </r>
       <r>   22.8005    0.0000 </r>
       <r>   24.0697    0.0000 </r>
       <r>   26.5577    0.0000 </r>
       <r>   27.1009    0.0000 </r>
       <r>   29.2726    0.0000 </r>
       <r>   30.1565    0.0000 </r>
       <r>   30.5956    0.0000 </r>
       <r>   32.0743    0.0000 </r>
       <r>   32.4063    0.0000 </r>
       <r>   33.0351    0.0000 </r>
       <r>   34.5629    0.0000 </r>
       <r>   35.5948    0.0000 </r>
       <r>   36.4554    0.0000 </r>
       <r>   39.2985    0.0000 </r>
       <r>   39.5117    0.0000 </r>
       <r>   41.2605    0.0000 </r>
       <r>   42.1738    0.0000 </r>
      </set>
      <set comment="kpoint 15">
       <r>   -3.3482    1.0000 </r>
       <r>   -0.9681    1.0000 </r>
       <r>    1.6972    1.0000 </r>
       <r>    3.7569    1.0000 </r>
       <r>    7.4626    0.0000 </r>
       <r>   11.0040    0.0000 </r>
       <r>   11.0492    0.0000 </r>
       <r>   12.4877    0.0000 </r>
       <r>   13.4949    0.0000 </r>
       <r>   13.5542    0.0000 </r>
       <r>   18.0819    0.0000 </r>
       <r>   20.2854    0.0000 </r>
       <r>   20.4911    0.0000 </r>
       <r>   21.4256    0.0000 </r>
       <r>   21.8809    0.0000 </r>
       <r>   23.7824    0.0000 </r>
       <r>   24.7981    0.0000 </r>
       <r>   25.3372    0.0000 </r>
       <r>   27.1773    0.0000 </r>
       <r>   27.4865    0.0000 </r>
       <r>   30.0665    0.0000 </r>
       <r>   30.6732    0.0000 </r>
       <r>   31.1380    0.0000 </r>
       <r>   31.6753    0.0000 </r>
       <r>   33.2003    0.0000 </r>
       <r>   33.9467    0.0000 </r>
       <r>   34.5520    0.0000 </r>
       <r>   35.3585    0.0000 </r>
       <r>   38.6899    0.0000 </r>
       <r>   39.3463    0.0000 </r>
       <r>   40.9747    0.0000 </r>
       <r>   41.1962    0.0000 </r>
      </set>
      <set comment="kpoint 16">
       <r>   -3.5451    1.0000 </r>
       <r>   -0.7185    1.0000 </r>
       <r>    2.1442    1.0000 </r>
       <r>    3.4461    1.0000 </r>
       <r>    7.1487    0.0000 </r>
       <r>   10.0373    0.0000 </r>
       <r>   11.2489    0.0000 </r>
       <r>   11.4830    0.0000 </r>
       <r>   15.6882    0.0000 </r>
       <r>   16.0659    0.0000 </r>
       <r>   17.6539    0.0000 </r>
       <r>   18.1206    0.0000 </r>
       <r>   18.4765    0.0000 </r>
       <r>   22.2534    0.0000 </r>
       <r>   23.1604    0.0000 </r>
       <r>   23.9651    0.0000 </r>
       <r>   24.7690    0.0000 </r>
       <r>   24.9833    0.0000 </r>
       <r>   25.3176    0.0000 </r>
       <r>   28.2565    0.0000 </r>
       <r>   29.0688    0.0000 </r>
       <r>   30.5183    0.0000 </r>
       <r>   30.8960    0.0000 </r>
       <r>   33.1090    0.0000 </r>
       <r>   34.3570    0.0000 </r>
       <r>   34.5932    0.0000 </r>
       <r>   34.6402    0.0000 </r>
       <r>   36.4028    0.0000 </r>
       <r>   37.3519    0.0000 </r>
       <r>   39.5315    0.0000 </r>
       <r>   40.6668    0.0000 </r>
       <r>   41.3251    0.0000 </r>
      </set>
      <set comment="kpoint 17">
       <r>   -4.4494    1.0000 </r>
       <r>    0.6886    1.0000 </r>
       <r>    2.9917    1.0000 </r>
       <r>    3.4442    1.0000 </r>
       <r>    6.9776    0.0000 </r>
       <r>    8.5098    0.0000 </r>
       <r>   11.5117    0.0000 </r>
       <r>   11.8118    0.0000 </r>
       <r>   15.5304    0.0000 </r>
       <r>   15.5693    0.0000 </r>
       <r>   17.1490    0.0000 </r>
       <r>   18.6911    0.0000 </r>
       <r>   19.2335    0.0000 </r>
       <r>   20.2765    0.0000 </r>
       <r>   21.3640    0.0000 </r>
       <r>   22.5543    0.0000 </r>
       <r>   23.8148    0.0000 </r>
       <r>   25.2028    0.0000 </r>
       <r>   27.2255    0.0000 </r>
       <r>   29.5095    0.0000 </r>
       <r>   30.5011    0.0000 </r>
       <r>   31.6278    0.0000 </r>
       <r>   31.7520    0.0000 </r>
       <r>   32.7071    0.0000 </r>
       <r>   34.1600    0.0000 </r>
       <r>   34.5083    0.0000 </r>
       <r>   35.7170    0.0000 </r>
       <r>   38.4912    0.0000 </r>
       <r>   38.5817    0.0000 </r>
       <r>   40.4397    0.0000 </r>
       <r>   41.7398    0.0000 </r>
       <r>   42.0457    0.0000 </r>
      </set>
      <set comment="kpoint 18">
       <r>   -3.8577    1.0000 </r>
       <r>   -0.1082    1.0000 </r>
       <r>    3.0535    1.0000 </r>
       <r>    3.0535    1.0000 </r>
       <r>    6.2574    0.0000 </r>
       <r>    7.1833    0.0000 </r>
       <r>   13.5404    0.0000 </r>
       <r>   13.5404    0.0000 </r>
       <r>   15.9903    0.0000 </r>
       <r>   16.0794    0.0000 </r>
       <r>   18.4881    0.0000 </r>
       <r>   18.4881    0.0000 </r>
       <r>   19.0582    0.0000 </r>
       <r>   20.6631    0.0000 </r>
       <r>   21.4455    0.0000 </r>
       <r>   22.2923    0.0000 </r>
       <r>   22.2923    0.0000 </r>
       <r>   24.1553    0.0000 </r>
       <r>   28.7884    0.0000 </r>
       <r>   28.9256    0.0000 </r>
       <r>   29.4220    0.0000 </r>
       <r>   29.4220    0.0000 </r>
       <r>   30.7290    0.0000 </r>
       <r>   32.4656    0.0000 </r>
       <r>   34.2745    0.0000 </r>
       <r>   34.2745    0.0000 </r>
       <r>   34.3340    0.0000 </r>
       <r>   40.2808    0.0000 </r>
       <r>   40.2808    0.0000 </r>
       <r>   40.4026    0.0000 </r>
       <r>   40.7985    0.0000 </r>
       <r>   41.4472    0.0000 </r>
      </set>
      <set comment="kpoint 19">
       <r>   -2.5562    1.0000 </r>
       <r>   -1.5590    1.0000 </r>
       <r>    1.4074    1.0000 </r>
       <r>    3.2303    1.0000 </r>
       <r>    6.8412    0.0000 </r>
       <r>    9.7174    0.0000 </r>
       <r>   12.9858    0.0000 </r>
       <r>   13.5180    0.0000 </r>
       <r>   13.6844    0.0000 </r>
       <r>   14.0867    0.0000 </r>
       <r>   20.0974    0.0000 </r>
       <r>   20.3702    0.0000 </r>
       <r>   20.8968    0.0000 </r>
       <r>   21.1331    0.0000 </r>
       <r>   21.3403    0.0000 </r>
       <r>   22.4433    0.0000 </r>
       <r>   24.9843    0.0000 </r>
       <r>   25.3409    0.0000 </r>
       <r>   26.9035    0.0000 </r>
       <r>   27.0252    0.0000 </r>
       <r>   28.2197    0.0000 </r>
       <r>   28.3434    0.0000 </r>
       <r>   30.5038    0.0000 </r>
       <r>   31.2617    0.0000 </r>
       <r>   34.2620    0.0000 </r>
       <r>   34.6391    0.0000 </r>
       <r>   34.8297    0.0000 </r>
       <r>   36.3670    0.0000 </r>
       <r>   39.9484    0.0000 </r>
       <r>   40.0424    0.0000 </r>
       <r>   40.2662    0.0000 </r>
       <r>   40.4711    0.0000 </r>
      </set>
      <set comment="kpoint 20">
       <r>   -2.9789    1.0000 </r>
       <r>   -1.1742    1.0000 </r>
       <r>    2.2489    1.0000 </r>
       <r>    2.9783    1.0000 </r>
       <r>    6.5380    0.0000 </r>
       <r>    7.5915    0.0000 </r>
       <r>   13.7787    0.0000 </r>
       <r>   13.8321    0.0000 </r>
       <r>   16.2198    0.0000 </r>
       <r>   16.3241    0.0000 </r>
       <r>   17.8216    0.0000 </r>
       <r>   18.2348    0.0000 </r>
       <r>   20.3388    0.0000 </r>
       <r>   20.4102    0.0000 </r>
       <r>   21.4010    0.0000 </r>
       <r>   24.1301    0.0000 </r>
       <r>   24.1958    0.0000 </r>
       <r>   24.8402    0.0000 </r>
       <r>   26.1540    0.0000 </r>
       <r>   27.6743    0.0000 </r>
       <r>   28.0881    0.0000 </r>
       <r>   28.8311    0.0000 </r>
       <r>   29.4168    0.0000 </r>
       <r>   31.1668    0.0000 </r>
       <r>   34.5664    0.0000 </r>
       <r>   35.3178    0.0000 </r>
       <r>   37.1297    0.0000 </r>
       <r>   38.1282    0.0000 </r>
       <r>   38.1955    0.0000 </r>
       <r>   39.7297    0.0000 </r>
       <r>   40.7766    0.0000 </r>
       <r>   41.9828    0.0000 </r>
      </set>
      <set comment="kpoint 21">
       <r>   -2.1412    1.0000 </r>
       <r>   -2.1412    1.0000 </r>
       <r>    2.8122    1.0000 </r>
       <r>    2.8122    1.0000 </r>
       <r>    6.3588    0.0000 </r>
       <r>    6.3588    0.0000 </r>
       <r>   15.5380    0.0000 </r>
       <r>   15.5380    0.0000 </r>
       <r>   16.5111    0.0000 </r>
       <r>   16.5111    0.0000 </r>
       <r>   18.0496    0.0000 </r>
       <r>   18.0496    0.0000 </r>
       <r>   18.3980    0.0000 </r>
       <r>   18.3980    0.0000 </r>
       <r>   24.2742    0.0000 </r>
       <r>   24.2743    0.0000 </r>
       <r>   25.1578    0.0000 </r>
       <r>   25.1578    0.0000 </r>
       <r>   25.6152    0.0000 </r>
       <r>   25.6152    0.0000 </r>
       <r>   26.8604    0.0000 </r>
       <r>   26.8604    0.0000 </r>
       <r>   30.7862    0.0000 </r>
       <r>   30.7862    0.0000 </r>
       <r>   34.6810    0.0000 </r>
       <r>   34.6810    0.0000 </r>
       <r>   39.3956    0.0000 </r>
       <r>   39.3956    0.0000 </r>
       <r>   39.5449    0.0000 </r>
       <r>   39.5449    0.0000 </r>
       <r>   41.0157    0.0000 </r>
       <r>   41.0157    0.0000 </r>
      </set>
      <set comment="kpoint 22">
       <r>   -4.9033    1.0000 </r>
       <r>    1.3357    1.0000 </r>
       <r>    2.9544    1.0000 </r>
       <r>    4.2048    1.0000 </r>
       <r>    8.0492    0.0000 </r>
       <r>    9.4315    0.0000 </r>
       <r>    9.8098    0.0000 </r>
       <r>   11.0452    0.0000 </r>
       <r>   13.3181    0.0000 </r>
       <r>   15.7077    0.0000 </r>
       <r>   16.5658    0.0000 </r>
       <r>   17.6373    0.0000 </r>
       <r>   19.3457    0.0000 </r>
       <r>   20.5451    0.0000 </r>
       <r>   21.3072    0.0000 </r>
       <r>   23.6173    0.0000 </r>
       <r>   24.6971    0.0000 </r>
       <r>   25.9231    0.0000 </r>
       <r>   27.0393    0.0000 </r>
       <r>   28.8050    0.0000 </r>
       <r>   30.5338    0.0000 </r>
       <r>   31.3719    0.0000 </r>
       <r>   33.1558    0.0000 </r>
       <r>   34.0884    0.0000 </r>
       <r>   34.8443    0.0000 </r>
       <r>   36.7256    0.0000 </r>
       <r>   36.9084    0.0000 </r>
       <r>   37.1706    0.0000 </r>
       <r>   39.1108    0.0000 </r>
       <r>   39.1785    0.0000 </r>
       <r>   40.6790    0.0000 </r>
       <r>   40.7343    0.0000 </r>
      </set>
      <set comment="kpoint 23">
       <r>   -4.0344    1.0000 </r>
       <r>   -0.1828    1.0000 </r>
       <r>    2.3504    1.0000 </r>
       <r>    3.7180    1.0000 </r>
       <r>    8.4701    0.0000 </r>
       <r>    9.1355    0.0000 </r>
       <r>   10.5832    0.0000 </r>
       <r>   11.4830    0.0000 </r>
       <r>   14.5354    0.0000 </r>
       <r>   15.2302    0.0000 </r>
       <r>   17.5064    0.0000 </r>
       <r>   18.3503    0.0000 </r>
       <r>   19.6726    0.0000 </r>
       <r>   20.5946    0.0000 </r>
       <r>   22.6990    0.0000 </r>
       <r>   23.5999    0.0000 </r>
       <r>   24.3895    0.0000 </r>
       <r>   26.3759    0.0000 </r>
       <r>   27.1808    0.0000 </r>
       <r>   28.1630    0.0000 </r>
       <r>   29.5550    0.0000 </r>
       <r>   31.0447    0.0000 </r>
       <r>   31.3529    0.0000 </r>
       <r>   32.5133    0.0000 </r>
       <r>   34.0675    0.0000 </r>
       <r>   34.8833    0.0000 </r>
       <r>   36.4422    0.0000 </r>
       <r>   36.5860    0.0000 </r>
       <r>   37.6614    0.0000 </r>
       <r>   38.4293    0.0000 </r>
       <r>   40.1428    0.0000 </r>
       <r>   41.1090    0.0000 </r>
      </set>
      <set comment="kpoint 24">
       <r>   -3.4008    1.0000 </r>
       <r>   -1.1015    1.0000 </r>
       <r>    2.2188    1.0000 </r>
       <r>    3.4953    1.0000 </r>
       <r>    8.6285    0.0000 </r>
       <r>    8.7532    0.0000 </r>
       <r>   11.4517    0.0000 </r>
       <r>   12.6706    0.0000 </r>
       <r>   12.9118    0.0000 </r>
       <r>   16.1132    0.0000 </r>
       <r>   17.1554    0.0000 </r>
       <r>   17.8770    0.0000 </r>
       <r>   20.8855    0.0000 </r>
       <r>   21.0001    0.0000 </r>
       <r>   23.5163    0.0000 </r>
       <r>   23.8561    0.0000 </r>
       <r>   24.8710    0.0000 </r>
       <r>   26.1871    0.0000 </r>
       <r>   26.3404    0.0000 </r>
       <r>   27.3553    0.0000 </r>
       <r>   30.3240    0.0000 </r>
       <r>   30.7296    0.0000 </r>
       <r>   30.8024    0.0000 </r>
       <r>   31.5601    0.0000 </r>
       <r>   33.5931    0.0000 </r>
       <r>   34.9599    0.0000 </r>
       <r>   35.2212    0.0000 </r>
       <r>   36.3448    0.0000 </r>
       <r>   37.1514    0.0000 </r>
       <r>   37.7027    0.0000 </r>
       <r>   39.8867    0.0000 </r>
       <r>   40.4964    0.0000 </r>
      </set>
      <set comment="kpoint 25">
       <r>   -3.1551    1.0000 </r>
       <r>   -0.9135    1.0000 </r>
       <r>    1.4773    1.0000 </r>
       <r>    3.0811    1.0000 </r>
       <r>    8.4707    0.0000 </r>
       <r>   10.1196    0.0000 </r>
       <r>   10.7713    0.0000 </r>
       <r>   12.5677    0.0000 </r>
       <r>   13.3695    0.0000 </r>
       <r>   14.7511    0.0000 </r>
       <r>   19.5403    0.0000 </r>
       <r>   19.7400    0.0000 </r>
       <r>   20.0770    0.0000 </r>
       <r>   21.6828    0.0000 </r>
       <r>   21.9450    0.0000 </r>
       <r>   23.7383    0.0000 </r>
       <r>   24.5513    0.0000 </r>
       <r>   25.3198    0.0000 </r>
       <r>   26.5158    0.0000 </r>
       <r>   27.4932    0.0000 </r>
       <r>   28.6275    0.0000 </r>
       <r>   29.8908    0.0000 </r>
       <r>   31.2048    0.0000 </r>
       <r>   32.6626    0.0000 </r>
       <r>   33.3771    0.0000 </r>
       <r>   34.4634    0.0000 </r>
       <r>   34.5312    0.0000 </r>
       <r>   36.4351    0.0000 </r>
       <r>   36.7927    0.0000 </r>
       <r>   38.0113    0.0000 </r>
       <r>   40.2901    0.0000 </r>
       <r>   42.6713    0.0000 </r>
      </set>
      <set comment="kpoint 26">
       <r>   -2.8116    1.0000 </r>
       <r>   -1.2712    1.0000 </r>
       <r>    1.6395    1.0000 </r>
       <r>    2.7148    1.0000 </r>
       <r>    8.0014    0.0000 </r>
       <r>    9.8744    0.0000 </r>
       <r>   10.8176    0.0000 </r>
       <r>   12.9562    0.0000 </r>
       <r>   13.9114    0.0000 </r>
       <r>   16.5639    0.0000 </r>
       <r>   17.6746    0.0000 </r>
       <r>   19.7872    0.0000 </r>
       <r>   20.7889    0.0000 </r>
       <r>   21.3863    0.0000 </r>
       <r>   22.9625    0.0000 </r>
       <r>   23.7864    0.0000 </r>
       <r>   24.0890    0.0000 </r>
       <r>   24.7637    0.0000 </r>
       <r>   26.4679    0.0000 </r>
       <r>   27.1020    0.0000 </r>
       <r>   28.0882    0.0000 </r>
       <r>   29.5256    0.0000 </r>
       <r>   30.3252    0.0000 </r>
       <r>   32.8620    0.0000 </r>
       <r>   33.4498    0.0000 </r>
       <r>   34.2055    0.0000 </r>
       <r>   35.9414    0.0000 </r>
       <r>   36.5846    0.0000 </r>
       <r>   37.2422    0.0000 </r>
       <r>   37.7562    0.0000 </r>
       <r>   39.7414    0.0000 </r>
       <r>   41.6757    0.0000 </r>
      </set>
      <set comment="kpoint 27">
       <r>   -3.6645    1.0000 </r>
       <r>   -0.3233    1.0000 </r>
       <r>    2.3191    1.0000 </r>
       <r>    2.9106    1.0000 </r>
       <r>    7.5620    0.0000 </r>
       <r>    8.2655    0.0000 </r>
       <r>   11.2896    0.0000 </r>
       <r>   13.4917    0.0000 </r>
       <r>   15.6595    0.0000 </r>
       <r>   15.7133    0.0000 </r>
       <r>   18.2858    0.0000 </r>
       <r>   18.7918    0.0000 </r>
       <r>   19.6697    0.0000 </r>
       <r>   20.1226    0.0000 </r>
       <r>   22.0996    0.0000 </r>
       <r>   22.4984    0.0000 </r>
       <r>   24.9732    0.0000 </r>
       <r>   25.3126    0.0000 </r>
       <r>   27.1753    0.0000 </r>
       <r>   27.2577    0.0000 </r>
       <r>   28.8106    0.0000 </r>
       <r>   29.5255    0.0000 </r>
       <r>   31.5728    0.0000 </r>
       <r>   32.8621    0.0000 </r>
       <r>   33.5201    0.0000 </r>
       <r>   34.4297    0.0000 </r>
       <r>   36.9865    0.0000 </r>
       <r>   37.8442    0.0000 </r>
       <r>   37.9457    0.0000 </r>
       <r>   38.4294    0.0000 </r>
       <r>   39.1206    0.0000 </r>
       <r>   42.5967    0.0000 </r>
      </set>
      <set comment="kpoint 28">
       <r>   -2.0676    1.0000 </r>
       <r>   -2.0676    1.0000 </r>
       <r>    2.2679    1.0000 </r>
       <r>    2.2679    1.0000 </r>
       <r>    7.5924    0.0000 </r>
       <r>    7.5924    0.0000 </r>
       <r>   13.3558    0.0000 </r>
       <r>   13.3558    0.0000 </r>
       <r>   16.0565    0.0000 </r>
       <r>   16.0565    0.0000 </r>
       <r>   18.3234    0.0000 </r>
       <r>   18.3234    0.0000 </r>
       <r>   20.9766    0.0000 </r>
       <r>   20.9766    0.0000 </r>
       <r>   22.8301    0.0000 </r>
       <r>   22.8301    0.0000 </r>
       <r>   24.4844    0.0000 </r>
       <r>   24.4844    0.0000 </r>
       <r>   27.0509    0.0000 </r>
       <r>   27.0509    0.0000 </r>
       <r>   28.3897    0.0000 </r>
       <r>   28.3897    0.0000 </r>
       <r>   29.4221    0.0000 </r>
[...]
        <r>  0.0231  0.0175  0.0896  0.0508  0.0000  0.0000  0.0000  0.0000  0.0000 </r>
       </set>
       <set comment="band 12">
        <r>  0.0205  0.0139  0.0054  0.0084  0.0000  0.0000  0.0000  0.0000  0.0000 </r>
        <r>  0.0205  0.0139  0.0054  0.0084  0.0000  0.0000  0.0000  0.0000  0.0000 </r>
       </set>
       <set comment="band 13">
        <r>  0.0028  0.0778  0.0212  0.0037  0.0000  0.0000  0.0000  0.0000  0.0000 </r>
        <r>  0.0028  0.0778  0.0212  0.0037  0.0000  0.0000  0.0000  0.0000  0.0000 </r>
       </set>
       <set comment="band 14">
        <r>  0.0003  0.0090  0.0147  0.0227  0.0000  0.0000  0.0000  0.0000  0.0000 </r>
        <r>  0.0003  0.0090  0.0147  0.0227  0.0000  0.0000  0.0000  0.0000  0.0000 </r>
       </set>
       <set comment="band 15">
        <r>  0.0316  0.0123  0.0279  0.0058  0.0000  0.0000  0.0000  0.0000  0.0000 </r>
        <r>  0.0316  0.0124  0.0279  0.0058  0.0000  0.0000  0.0000  0.0000  0.0000 </r>
       </set>
       <set comment="band 16">
        <r>  0.0088  0.0092  0.0067  0.0053  0.0000  0.0000  0.0000  0.0000  0.0000 </r>
        <r>  0.0088  0.0092  0.0067  0.0053  0.0000  0.0000  0.0000  0.0000  0.0000 </r>
       </set>
       <set comment="band 17">
        <r>  0.0007  0.0097  0.0119  0.0185  0.0000  0.0000  0.0000  0.0000  0.0000 </r>
        <r>  0.0007  0.0097  0.0119  0.0185  0.0000  0.0000  0.0000  0.0000  0.0000 </r>
       </set>
       <set comment="band 18">
        <r>  0.0208  0.0611  0.0031  0.0350  0.0000  0.0000  0.0000  0.0000  0.0000 </r>
        <r>  0.0208  0.0611  0.0031  0.0350  0.0000  0.0000  0.0000  0.0000  0.0000 </r>
       </set>
       <set comment="band 19">
        <r>  0.0073  0.0090  0.0264  0.0128  0.0000  0.0000  0.0000  0.0000  0.0000 </r>
        <r>  0.0073  0.0090  0.0264  0.0128  0.0000  0.0000  0.0000  0.0000  0.0000 </r>
       </set>
       <set comment="band 20">
        <r>  0.0070  0.0043  0.0143  0.0172  0.0000  0.0000  0.0000  0.0000  0.0000 </r>
        <r>  0.0070  0.0043  0.0143  0.0172  0.0000  0.0000  0.0000  0.0000  0.0000 </r>
       </set>
       <set comment="band 21">
        <r>  0.0146  0.0027  0.0094  0.0035  0.0000  0.0000  0.0000  0.0000  0.0000 </r>
        <r>  0.0146  0.0027  0.0094  0.0035  0.0000  0.0000  0.0000  0.0000  0.0000 </r>
       </set>
       <set comment="band 22">
        <r>  0.0327  0.0054  0.0097  0.0150  0.0000  0.0000  0.0000  0.0000  0.0000 </r>
        <r>  0.0327  0.0054  0.0097  0.0150  0.0000  0.0000  0.0000  0.0000  0.0000 </r>
       </set>
       <set comment="band 23">
        <r>  0.0068  0.0396  0.0026  0.0241  0.0000  0.0000  0.0000  0.0000  0.0000 </r>
        <r>  0.0068  0.0396  0.0026  0.0241  0.0000  0.0000  0.0000  0.0000  0.0000 </r>
       </set>
       <set comment="band 24">
        <r>  0.0000  0.0007  0.0043  0.0026  0.0000  0.0000  0.0000  0.0000  0.0000 </r>
        <r>  0.0000  0.0007  0.0043  0.0026  0.0000  0.0000  0.0000  0.0000  0.0000 </r>
       </set>
       <set comment="band 25">
        <r>  0.0004  0.0123  0.0127  0.0117  0.0000  0.0000  0.0000  0.0000  0.0000 </r>
        <r>  0.0004  0.0123  0.0127  0.0117  0.0000  0.0000  0.0000  0.0000  0.0000 </r>
       </set>
       <set comment="band 26">
        <r>  0.0170  0.0058  0.0148  0.0205  0.0000  0.0000  0.0000  0.0000  0.0000 </r>
        <r>  0.0170  0.0058  0.0148  0.0205  0.0000  0.0000  0.0000  0.0000  0.0000 </r>
       </set>
       <set comment="band 27">
        <r>  0.0046  0.0064  0.0206  0.0171  0.0000  0.0000  0.0000  0.0000  0.0000 </r>
        <r>  0.0046  0.0064  0.0206  0.0171  0.0000  0.0000  0.0000  0.0000  0.0000 </r>
       </set>
       <set comment="band 28">
        <r>  0.0017  0.0099  0.0073  0.0161  0.0000  0.0000  0.0000  0.0000  0.0000 </r>
        <r>  0.0017  0.0099  0.0073  0.0161  0.0000  0.0000  0.0000  0.0000  0.0000 </r>
       </set>
       <set comment="band 29">
        <r>  0.0064  0.0031  0.0059  0.0091  0.0000  0.0000  0.0000  0.0000  0.0000 </r>
        <r>  0.0064  0.0031  0.0059  0.0091  0.0000  0.0000  0.0000  0.0000  0.0000 </r>
       </set>
       <set comment="band 30">
        <r>  0.0111  0.0079  0.0084  0.0081  0.0000  0.0000  0.0000  0.0000  0.0000 </r>
        <r>  0.0111  0.0079  0.0084  0.0081  0.0000  0.0000  0.0000  0.0000  0.0000 </r>
       </set>
       <set comment="band 31">
        <r>  0.0255  0.0032  0.0112  0.0098  0.0000  0.0000  0.0000  0.0000  0.0000 </r>
        <r>  0.0255  0.0032  0.0112  0.0098  0.0000  0.0000  0.0000  0.0000  0.0000 </r>
       </set>
       <set comment="band 32">
        <r>  0.0020  0.0090  0.0148  0.0113  0.0000  0.0000  0.0000  0.0000  0.0000 </r>
        <r>  0.0020  0.0090  0.0148  0.0113  0.0000  0.0000  0.0000  0.0000  0.0000 </r>
       </set>
      </set>
      <set comment="kpoint 28">
       <set comment="band 1">
        <r>  0.3872  0.0013  0.0008  0.0000  0.0000  0.0000  0.0000  0.0000  0.0000 </r>
        <r>  0.0093  0.0509  0.0278  0.0044  0.0000  0.0000  0.0000  0.0000  0.0000 </r>
       </set>
       <set comment="band 2">
        <r>  0.0093  0.0508  0.0276  0.0047  0.0000  0.0000  0.0000  0.0000  0.0000 </r>
        <r>  0.3872  0.0012  0.0006  0.0003  0.0000  0.0000  0.0000  0.0000  0.0000 </r>
       </set>
       <set comment="band 3">
        <r>  0.0024  0.0123  0.0791  0.0798  0.0000  0.0000  0.0000  0.0000  0.0000 </r>
        <r>  0.0026  0.0112  0.0787  0.0799  0.0000  0.0000  0.0000  0.0000  0.0000 </r>
       </set>
       <set comment="band 4">
        <r>  0.0026  0.0611  0.0345  0.0741  0.0000  0.0000  0.0000  0.0000  0.0000 </r>
        <r>  0.0024  0.0623  0.0350  0.0740  0.0000  0.0000  0.0000  0.0000  0.0000 </r>
       </set>
       <set comment="band 5">
        <r>  0.0413  0.0053  0.0336  0.0266  0.0000  0.0000  0.0000  0.0000  0.0000 </r>
        <r>  0.0378  0.0067  0.0341  0.0262  0.0000  0.0000  0.0000  0.0000  0.0000 </r>
       </set>
       <set comment="band 6">
        <r>  0.0378  0.0431  0.0106  0.0134  0.0000  0.0000  0.0000  0.0000  0.0000 </r>
        <r>  0.0413  0.0417  0.0101  0.0138  0.0000  0.0000  0.0000  0.0000  0.0000 </r>
       </set>
       <set comment="band 7">
        <r>  0.0202  0.0085  0.0710  0.0468  0.0000  0.0000  0.0000  0.0000  0.0000 </r>
        <r>  0.0218  0.0073  0.0710  0.0478  0.0000  0.0000  0.0000  0.0000  0.0000 </r>
       </set>
       <set comment="band 8">
        <r>  0.0218  0.0618  0.0131  0.0512  0.0000  0.0000  0.0000  0.0000  0.0000 </r>
        <r>  0.0202  0.0630  0.0131  0.0501  0.0000  0.0000  0.0000  0.0000  0.0000 </r>
       </set>
       <set comment="band 9">
        <r>  0.0005  0.0146  0.0595  0.0517  0.0000  0.0000  0.0000  0.0000  0.0000 </r>
        <r>  0.0005  0.0132  0.0581  0.0504  0.0000  0.0000  0.0000  0.0000  0.0000 </r>
       </set>
       <set comment="band 10">
        <r>  0.0005  0.0481  0.0230  0.0506  0.0000  0.0000  0.0000  0.0000  0.0000 </r>
        <r>  0.0005  0.0495  0.0244  0.0519  0.0000  0.0000  0.0000  0.0000  0.0000 </r>
       </set>
       <set comment="band 11">
        <r>  0.0083  0.0916  0.0511  0.0119  0.0000  0.0000  0.0000  0.0000  0.0000 </r>
        <r>  0.0405  0.0195  0.0102  0.0023  0.0000  0.0000  0.0000  0.0000  0.0000 </r>
       </set>
       <set comment="band 12">
        <r>  0.0405  0.0180  0.0111  0.0028  0.0000  0.0000  0.0000  0.0000  0.0000 </r>
        <r>  0.0083  0.0902  0.0520  0.0124  0.0000  0.0000  0.0000  0.0000  0.0000 </r>
       </set>
       <set comment="band 13">
        <r>  0.0101  0.0364  0.0726  0.0164  0.0000  0.0000  0.0000  0.0000  0.0000 </r>
        <r>  0.0132  0.0230  0.0669  0.0184  0.0000  0.0000  0.0000  0.0000  0.0000 </r>
       </set>
       <set comment="band 14">
        <r>  0.0132  0.0823  0.0053  0.0207  0.0000  0.0000  0.0000  0.0000  0.0000 </r>
        <r>  0.0101  0.0957  0.0110  0.0188  0.0000  0.0000  0.0000  0.0000  0.0000 </r>
       </set>
       <set comment="band 15">
        <r>  0.0026  0.0069  0.0073  0.0049  0.0000  0.0000  0.0000  0.0000  0.0000 </r>
        <r>  0.0033  0.0057  0.0059  0.0034  0.0000  0.0000  0.0000  0.0000  0.0000 </r>
       </set>
       <set comment="band 16">
        <r>  0.0033  0.0026  0.0041  0.0083  0.0000  0.0000  0.0000  0.0000  0.0000 </r>
        <r>  0.0026  0.0038  0.0055  0.0099  0.0000  0.0000  0.0000  0.0000  0.0000 </r>
       </set>
       <set comment="band 17">
        <r>  0.0328  0.0012  0.0103  0.0094  0.0000  0.0000  0.0000  0.0000  0.0000 </r>
        <r>  0.0330  0.0012  0.0103  0.0094  0.0000  0.0000  0.0000  0.0000  0.0000 </r>
       </set>
       <set comment="band 18">
        <r>  0.0330  0.0105  0.0036  0.0068  0.0000  0.0000  0.0000  0.0000  0.0000 </r>
        <r>  0.0328  0.0105  0.0036  0.0068  0.0000  0.0000  0.0000  0.0000  0.0000 </r>
       </set>
       <set comment="band 19">
        <r>  0.0006  0.0015  0.0010  0.0570  0.0000  0.0000  0.0000  0.0000  0.0000 </r>
        <r>  0.0006  0.0015  0.0010  0.0570  0.0000  0.0000  0.0000  0.0000  0.0000 </r>
       </set>
       <set comment="band 20">
        <r>  0.0006  0.0185  0.0387  0.0023  0.0000  0.0000  0.0000  0.0000  0.0000 </r>
        <r>  0.0006  0.0185  0.0387  0.0023  0.0000  0.0000  0.0000  0.0000  0.0000 </r>
       </set>
       <set comment="band 21">
        <r>  0.0298  0.0037  0.0258  0.0222  0.0000  0.0000  0.0000  0.0000  0.0000 </r>
        <r>  0.0292  0.0040  0.0259  0.0222  0.0000  0.0000  0.0000  0.0000  0.0000 </r>
       </set>
       <set comment="band 22">
        <r>  0.0292  0.0316  0.0088  0.0116  0.0000  0.0000  0.0000  0.0000  0.0000 </r>
        <r>  0.0298  0.0314  0.0087  0.0117  0.0000  0.0000  0.0000  0.0000  0.0000 </r>
       </set>
       <set comment="band 23">
        <r>  0.0002  0.0013  0.0019  0.0068  0.0000  0.0000  0.0000  0.0000  0.0000 </r>
        <r>  0.0002  0.0013  0.0019  0.0068  0.0000  0.0000  0.0000  0.0000  0.0000 </r>
       </set>
       <set comment="band 24">
        <r>  0.0002  0.0021  0.0047  0.0032  0.0000  0.0000  0.0000  0.0000  0.0000 </r>
        <r>  0.0002  0.0021  0.0047  0.0032  0.0000  0.0000  0.0000  0.0000  0.0000 </r>
       </set>
       <set comment="band 25">
        <r>  0.0176  0.0016  0.0152  0.0189  0.0000  0.0000  0.0000  0.0000  0.0000 </r>
        <r>  0.0201  0.0022  0.0164  0.0209  0.0000  0.0000  0.0000  0.0000  0.0000 </r>
       </set>
       <set comment="band 26">
        <r>  0.0201  0.0123  0.0099  0.0172  0.0000  0.0000  0.0000  0.0000  0.0000 </r>
        <r>  0.0176  0.0118  0.0086  0.0153  0.0000  0.0000  0.0000  0.0000  0.0000 </r>
       </set>
       <set comment="band 27">
        <r>  0.0110  0.0088  0.0131  0.0232  0.0000  0.0000  0.0000  0.0000  0.0000 </r>
        <r>  0.0175  0.0055  0.0076  0.0155  0.0000  0.0000  0.0000  0.0000  0.0000 </r>
       </set>
       <set comment="band 28">
        <r>  0.0175  0.0059  0.0114  0.0113  0.0000  0.0000  0.0000  0.0000  0.0000 </r>
        <r>  0.0110  0.0092  0.0169  0.0189  0.0000  0.0000  0.0000  0.0000  0.0000 </r>
       </set>
       <set comment="band 29">
        <r>  0.0003  0.0020  0.0067  0.0068  0.0000  0.0000  0.0000  0.0000  0.0000 </r>
        <r>  0.0003  0.0020  0.0066  0.0066  0.0000  0.0000  0.0000  0.0000  0.0000 </r>
       </set>
       <set comment="band 30">
        <r>  0.0003  0.0040  0.0035  0.0076  0.0000  0.0000  0.0000  0.0000  0.0000 </r>
        <r>  0.0003  0.0041  0.0036  0.0078  0.0000  0.0000  0.0000  0.0000  0.0000 </r>
       </set>
       <set comment="band 31">
        <r>  0.0045  0.0041  0.0029  0.0079  0.0000  0.0000  0.0000  0.0000  0.0000 </r>
        <r>  0.0025  0.0076  0.0064  0.0113  0.0000  0.0000  0.0000  0.0000  0.0000 </r>
       </set>
       <set comment="band 32">
        <r>  0.0025  0.0088  0.0105  0.0060  0.0000  0.0000  0.0000  0.0000  0.0000 </r>
        <r>  0.0045  0.0054  0.0070  0.0025  0.0000  0.0000  0.0000  0.0000  0.0000 </r>
       </set>
      </set>
      <set comment="kpoint 29">
       <set comment="band 1">
        <r>  0.4009  0.0006  0.0005  0.0004  0.0000  0.0000  0.0000  0.0000  0.0000 </r>
        <r>  0.0078  0.0334  0.0267  0.0200  0.0000  0.0000  0.0000  0.0000  0.0000 </r>
       </set>
       <set comment="band 2">
        <r>  0.0078  0.0334  0.0267  0.0200  0.0000  0.0000  0.0000  0.0000  0.0000 </r>
        <r>  0.4009  0.0006  0.0005  0.0004  0.0000  0.0000  0.0000  0.0000  0.0000 </r>
       </set>
       <set comment="band 3">
        <r>  0.0000  0.0155  0.0935  0.0525  0.0000  0.0000  0.0000  0.0000  0.0000 </r>
        <r>  0.0000  0.0116  0.0924  0.0542  0.0000  0.0000  0.0000  0.0000  0.0000 </r>
       </set>
       <set comment="band 4">
        <r>  0.0000  0.0833  0.0130  0.0619  0.0000  0.0000  0.0000  0.0000  0.0000 </r>
        <r>  0.0000  0.0871  0.0141  0.0602  0.0000  0.0000  0.0000  0.0000  0.0000 </r>
       </set>
       <set comment="band 5">
        <r>  0.0000  0.0189  0.0411  0.0607  0.0000  0.0000  0.0000  0.0000  0.0000 </r>
        <r>  0.0000  0.0072  0.0177  0.0254  0.0000  0.0000  0.0000  0.0000  0.0000 </r>
       </set>
       <set comment="band 6">
        <r>  0.0000  0.0096  0.0159  0.0248  0.0000  0.0000  0.0000  0.0000  0.0000 </r>
        <r>  0.0000  0.0213  0.0394  0.0601  0.0000  0.0000  0.0000  0.0000  0.0000 </r>
       </set>
       <set comment="band 7">
        <r>  0.0295  0.0669  0.0535  0.0401  0.0000  0.0000  0.0000  0.0000  0.0000 </r>
        <r>  0.0937  0.0211  0.0169  0.0127  0.0000  0.0000  0.0000  0.0000  0.0000 </r>
       </set>
       <set comment="band 8">
        <r>  0.0937  0.0211  0.0169  0.0126  0.0000  0.0000  0.0000  0.0000  0.0000 </r>
        <r>  0.0295  0.0669  0.0535  0.0401  0.0000  0.0000  0.0000  0.0000  0.0000 </r>
       </set>
       <set comment="band 9">
        <r>  0.0000  0.0178  0.0731  0.0458  0.0000  0.0000  0.0000  0.0000  0.0000 </r>
        <r>  0.0000  0.0165  0.0723  0.0456  0.0000  0.0000  0.0000  0.0000  0.0000 </r>
       </set>
       <set comment="band 10">
        <r>  0.0000  0.0757  0.0173  0.0415  0.0000  0.0000  0.0000  0.0000  0.0000 </r>
        <r>  0.0000  0.0770  0.0181  0.0417  0.0000  0.0000  0.0000  0.0000  0.0000 </r>
       </set>
       <set comment="band 11">
        <r>  0.0112  0.0670  0.0536  0.0402  0.0000  0.0000  0.0000  0.0000  0.0000 </r>
        <r>  0.0395  0.0191  0.0153  0.0114  0.0000  0.0000  0.0000  0.0000  0.0000 </r>
       </set>
       <set comment="band 12">
        <r>  0.0395  0.0191  0.0153  0.0114  0.0000  0.0000  0.0000  0.0000  0.0000 </r>
        <r>  0.0112  0.0670  0.0536  0.0402  0.0000  0.0000  0.0000  0.0000  0.0000 </r>
       </set>
       <set comment="band 13">
        <r>  0.0000  0.0193  0.0092  0.0111  0.0000  0.0000  0.0000  0.0000  0.0000 </r>
        <r>  0.0000  0.0109  0.0028  0.0067  0.0000  0.0000  0.0000  0.0000  0.0000 </r>
       </set>
       <set comment="band 14">
        <r>  0.0000  0.0045  0.0108  0.0051  0.0000  0.0000  0.0000  0.0000  0.0000 </r>
        <r>  0.0000  0.0130  0.0172  0.0094  0.0000  0.0000  0.0000  0.0000  0.0000 </r>
       </set>
       <set comment="band 15">
        <r>  0.0239  0.0116  0.0093  0.0070  0.0000  0.0000  0.0000  0.0000  0.0000 </r>
        <r>  0.0356  0.0078  0.0062  0.0047  0.0000  0.0000  0.0000  0.0000  0.0000 </r>
       </set>
       <set comment="band 16">
        <r>  0.0356  0.0078  0.0062  0.0047  0.0000  0.0000  0.0000  0.0000  0.0000 </r>
        <r>  0.0239  0.0116  0.0093  0.0070  0.0000  0.0000  0.0000  0.0000  0.0000 </r>
       </set>
       <set comment="band 17">
        <r>  0.0000  0.0147  0.0696  0.0573  0.0000  0.0000  0.0000  0.0000  0.0000 </r>
        <r>  0.0000  0.0090  0.0669  0.0576  0.0000  0.0000  0.0000  0.0000  0.0000 </r>
       </set>
       <set comment="band 18">
        <r>  0.0000  0.0760  0.0221  0.0354  0.0000  0.0000  0.0000  0.0000  0.0000 </r>
        <r>  0.0000  0.0817  0.0248  0.0351  0.0000  0.0000  0.0000  0.0000  0.0000 </r>
       </set>
       <set comment="band 19">
        <r>  0.0319  0.0056  0.0045  0.0034  0.0000  0.0000  0.0000  0.0000  0.0000 </r>
        <r>  0.0152  0.0118  0.0094  0.0071  0.0000  0.0000  0.0000  0.0000  0.0000 </r>
       </set>
       <set comment="band 20">
        <r>  0.0152  0.0118  0.0094  0.0071  0.0000  0.0000  0.0000  0.0000  0.0000 </r>
        <r>  0.0319  0.0056  0.0045  0.0034  0.0000  0.0000  0.0000  0.0000  0.0000 </r>
       </set>
       <set comment="band 21">
        <r>  0.0000  0.0031  0.0299  0.0362  0.0000  0.0000  0.0000  0.0000  0.0000 </r>
        <r>  0.0000  0.0019  0.0270  0.0316  0.0000  0.0000  0.0000  0.0000  0.0000 </r>
       </set>
       <set comment="band 22">
        <r>  0.0000  0.0218  0.0133  0.0254  0.0000  0.0000  0.0000  0.0000  0.0000 </r>
        <r>  0.0000  0.0229  0.0162  0.0300  0.0000  0.0000  0.0000  0.0000  0.0000 </r>
       </set>
       <set comment="band 23">
        <r>  0.0001  0.0000  0.0000  0.0000  0.0000  0.0000  0.0000  0.0000  0.0000 </r>
        <r>  0.0001  0.0000  0.0000  0.0000  0.0000  0.0000  0.0000  0.0000  0.0000 </r>
       </set>
       <set comment="band 24">
        <r>  0.0001  0.0000  0.0000  0.0000  0.0000  0.0000  0.0000  0.0000  0.0000 </r>
        <r>  0.0001  0.0000  0.0000  0.0000  0.0000  0.0000  0.0000  0.0000  0.0000 </r>
       </set>
       <set comment="band 25">
        <r>  0.0000  0.0027  0.0215  0.0106  0.0000  0.0000  0.0000  0.0000  0.0000 </r>
        <r>  0.0000  0.0027  0.0215  0.0106  0.0000  0.0000  0.0000  0.0000  0.0000 </r>
       </set>
       <set comment="band 26">
        <r>  0.0000  0.0150  0.0017  0.0182  0.0000  0.0000  0.0000  0.0000  0.0000 </r>
        <r>  0.0000  0.0150  0.0017  0.0182  0.0000  0.0000  0.0000  0.0000  0.0000 </r>
       </set>
       <set comment="band 27">
        <r>  0.0403  0.0052  0.0042  0.0031  0.0000  0.0000  0.0000  0.0000  0.0000 </r>
        <r>  0.0823  0.0026  0.0020  0.0015  0.0000  0.0000  0.0000  0.0000  0.0000 </r>
       </set>
       <set comment="band 28">
        <r>  0.0823  0.0026  0.0020  0.0015  0.0000  0.0000  0.0000  0.0000  0.0000 </r>
        <r>  0.0403  0.0052  0.0042  0.0031  0.0000  0.0000  0.0000  0.0000  0.0000 </r>
       </set>
       <set comment="band 29">
        <r>  0.0000  0.0001  0.0066  0.0076  0.0000  0.0000  0.0000  0.0000  0.0000 </r>
        <r>  0.0000  0.0001  0.0066  0.0076  0.0000  0.0000  0.0000  0.0000  0.0000 </r>
       </set>
       <set comment="band 30">
        <r>  0.0000  0.0074  0.0029  0.0039  0.0000  0.0000  0.0000  0.0000  0.0000 </r>
        <r>  0.0000  0.0073  0.0029  0.0040  0.0000  0.0000  0.0000  0.0000  0.0000 </r>
       </set>
       <set comment="band 31">
        <r>  0.0036  0.0164  0.0131  0.0098  0.0000  0.0000  0.0000  0.0000  0.0000 </r>
        <r>  0.0035  0.0166  0.0133  0.0100  0.0000  0.0000  0.0000  0.0000  0.0000 </r>
       </set>
       <set comment="band 32">
        <r>  0.0035  0.0166  0.0133  0.0100  0.0000  0.0000  0.0000  0.0000  0.0000 </r>
        <r>  0.0036  0.0164  0.0131  0.0098  0.0000  0.0000  0.0000  0.0000  0.0000 </r>
       </set>
      </set>
     </set>
    </set>
   </array>
  </projected>
 </calculation>
 <structure name="finalpos" >
  <crystal>
   <varray name="basis" >
    <v>       3.86748400       0.00000000       0.00000000 </v>
    <v>       1.93374200       3.34934000       0.00000000 </v>
    <v>       0.00000000      -2.23289100       3.15778800 </v>
   </varray>
   <i name="volume">     40.90446642 </i>
   <varray name="rec_basis" >
    <v>       0.25856603      -0.14928314      -0.10555901 </v>
    <v>       0.00000000       0.29856628       0.21111803 </v>
    <v>       0.00000000       0.00000000       0.31667737 </v>
   </varray>
  </crystal>
  <varray name="positions" >
   <v>       0.00000000       0.00000000       0.00000000 </v>
   <v>       0.75000000       0.50000000       0.75000000 </v>
  </varray>
 </structure>
</modeling>
